ITEM: TIMESTEP
10120
ITEM: NUMBER OF ATOMS
31
ITEM: BOX BOUNDS ss ss ss
-2.1145453719892135e+01 -1.6028755955100703e+01
-1.5902318125442745e+01 -3.9225513511866690e+00
1.7873873637029597e+01 2.3260254399038580e+01
ITEM: ATOMS id type xs ys zs
5 7 0.956096 0.000250422 0.448337
2 5 0.879381 0.160403 0.597798
3 5 0.615648 0.0994703 0.416154
7 5 0.94761 0.312742 0.225329
8 5 0.658034 0.252557 0.0778362
4 6 0.964405 0.0623539 0.334712
1 3 0.816934 0.138545 0.401763
6 3 0.747389 0.276474 0.263535
11 5 0.457856 0.505809 0.281389
12 5 0.754501 0.473595 0.11103
14 5 0.903997 0.614179 0.384829
15 5 0.999414 0.489117 0.555984
22 5 0.311462 0.644922 0.939247
9 4 0.596169 0.360187 0.323774
10 3 0.655176 0.461816 0.298441
13 3 0.823951 0.541641 0.498164
16 4 0.742956 0.581622 0.692604
19 5 0.653751 0.71021 0.498176
18 5 0.832889 0.724614 0.790859
21 5 0.460583 0.779439 0.999443
26 5 0.40118 0.901247 0.679204
25 5 0.0448008 0.903312 0.694307
28 5 0.000586316 0.869863 0.216863
29 5 0.352361 0.853956 0.183363
31 7 0.186802 0.994599 0.00055696
17 3 0.665769 0.67816 0.696263
20 3 0.393947 0.722226 0.842852
23 4 0.201754 0.765367 0.73519
27 3 0.195477 0.905762 0.277086
30 6 0.208212 0.99975 0.178114
24 3 0.218561 0.858711 0.608087
