31
Atoms. Timestep: 10120
3 -16.9654 -14.2426 20.0379
5 -16.6459 -13.9807 21.0938
5 -17.9954 -14.7107 20.1154
6 -16.2109 -15.1553 19.6768
7 -16.2534 -15.8993 20.2888
3 -17.3213 -12.5902 19.2934
5 -16.2968 -12.1557 19.0876
5 -17.7785 -12.8767 18.2931
4 -18.095 -11.5874 19.6178
3 -17.7931 -10.3699 19.4814
5 -18.8027 -9.84285 19.3895
5 -17.2849 -10.2288 18.4719
3 -16.9295 -9.41358 20.5572
5 -16.52 -8.5446 19.9467
5 -16.0318 -10.0428 20.8686
4 -17.344 -8.93462 21.6045
3 -17.7389 -7.77811 21.6242
5 -16.8838 -7.22162 22.1337
5 -17.8004 -7.39417 20.5572
3 -19.1297 -7.25021 22.4138
5 -18.7888 -6.56482 23.2573
5 -19.5518 -8.17631 22.933
4 -20.1131 -6.7334 21.8339
3 -20.0271 -5.61516 21.1493
5 -20.9162 -5.08085 21.6137
5 -19.0927 -5.10559 21.5323
3 -20.1453 -5.0515 19.3664
5 -21.1425 -5.48156 19.042
5 -19.3425 -5.67212 18.8615
6 -20.0801 -3.92555 18.8333
7 -20.1896 -3.98726 17.8769
