ITEM: TIMESTEP
10120
ITEM: NUMBER OF ATOMS
31
ITEM: BOX BOUNDS ss ss ss
8.1811417799332020e+01 8.7708789348837996e+01
-1.9539048232425227e+01 -9.6470439038180960e+00
3.6284096420920693e+00 1.0203415723246001e+01
ITEM: ATOMS id type xs ys zs
5 7 0.396479 0.0990503 0.000456273
2 5 0.505929 0.151267 0.298183
3 5 0.330548 0.000303275 0.27877
7 5 0.159214 0.277436 0.492217
8 5 0.000508701 0.119345 0.477817
12 5 0.29449 0.165834 0.96395
11 5 0.23106 0.317647 0.819027
14 5 0.612454 0.232419 0.591073
15 5 0.671188 0.13618 0.823245
18 5 0.999491 0.387216 0.824807
19 5 0.872818 0.320114 0.592526
1 3 0.3266 0.114724 0.269097
6 3 0.176068 0.163657 0.503377
10 3 0.309605 0.212953 0.805935
4 6 0.286877 0.141427 0.0886541
9 4 0.190595 0.140432 0.696484
13 3 0.588619 0.232257 0.762541
16 4 0.701588 0.323908 0.836255
17 3 0.837171 0.386038 0.730737
21 5 0.655876 0.542682 0.53759
22 5 0.964297 0.555394 0.53719
26 5 0.774281 0.822957 0.618106
25 5 0.531062 0.708291 0.61721
29 5 0.437615 0.793701 0.999544
20 3 0.810038 0.544626 0.641187
28 5 0.671 0.913433 0.977742
31 7 0.343984 0.999697 0.979419
23 4 0.817422 0.652746 0.741121
24 3 0.671837 0.750426 0.715793
27 3 0.526675 0.864793 0.890273
30 6 0.390707 0.956252 0.855043
