31
Atoms. Timestep: 10120
3 83.7375 -18.4042 5.39772
5 84.7951 -18.0427 5.58896
5 83.7608 -19.536 5.46132
6 83.5032 -18.14 4.21131
7 84.1496 -18.5592 3.63141
3 82.8498 -17.9202 6.93811
5 82.7504 -16.7946 6.86474
5 81.8144 -18.3585 6.77006
4 82.9354 -18.1499 8.2078
3 83.6373 -17.4325 8.92744
5 83.1741 -16.3969 9.01352
5 83.5481 -17.8986 9.96639
3 85.2827 -17.2416 8.64212
5 85.4233 -17.24 7.51472
5 85.7697 -18.192 9.04125
4 85.9489 -16.335 9.12679
3 86.7485 -15.7204 8.43301
5 87.7058 -15.7087 9.05152
5 86.9588 -16.3725 7.52427
3 86.5885 -14.1516 7.84422
5 85.6794 -14.1708 7.16307
5 87.4982 -14.0451 7.16044
4 86.6321 -13.0821 8.50128
3 85.7735 -12.1158 8.33475
5 84.9433 -12.5326 7.68657
5 86.3776 -11.3984 7.69246
3 84.9174 -10.9845 9.48196
5 85.7686 -10.5034 10.0571
5 84.3922 -11.6878 10.2004
6 84.1156 -10.0798 9.25032
7 83.84 -9.65004 10.0681
