ITEM: TIMESTEP
10120
ITEM: NUMBER OF ATOMS
31
ITEM: BOX BOUNDS ss ss ss
-1.3785193425831808e+00 5.1102582852205343e+00
1.6630107616966148e+00 8.6631395299329306e+00
-3.2691046136685046e+01 -2.5554546894708512e+01
ITEM: ATOMS id type xs ys zs
29 5 0.556241 0.264237 0.453127
31 7 0.402667 0.000428564 0.489813
4 6 0.872111 0.859376 0.000420374
1 3 0.790284 0.820093 0.150434
9 4 0.464097 0.640313 0.351696
6 3 0.552387 0.692793 0.195493
10 3 0.277564 0.677704 0.401947
5 7 0.999538 0.927137 0.020435
2 5 0.909467 0.736805 0.233237
3 5 0.767527 0.961297 0.225707
7 5 0.584012 0.547996 0.128723
8 5 0.43367 0.766739 0.104455
11 5 0.229995 0.5365 0.468987
12 5 0.182476 0.689969 0.268736
27 3 0.485322 0.226298 0.593457
30 6 0.477182 0.0489299 0.596636
24 3 0.607381 0.402192 0.754445
26 5 0.776469 0.360316 0.743712
25 5 0.554357 0.356173 0.898718
28 5 0.31923 0.276274 0.588839
16 4 0.13994 0.840864 0.72446
23 4 0.630372 0.589964 0.759964
13 3 0.167247 0.846812 0.554259
17 3 0.298312 0.851497 0.819002
20 3 0.517595 0.703957 0.857352
14 5 0.242013 0.989461 0.521465
15 5 0.000462337 0.85909 0.505401
18 5 0.36186 0.999571 0.789379
19 5 0.224128 0.860998 0.963512
21 5 0.641574 0.816774 0.884027
22 5 0.489242 0.636194 0.99958
