31
Atoms. Timestep: 10120
3 3.74946 7.40377 -31.6175
5 4.52281 6.82074 -31.0265
5 3.60179 8.39221 -31.0803
6 4.28042 7.67875 -32.688
7 5.10726 8.15309 -32.5452
3 2.20579 6.51265 -31.2959
5 2.411 5.49906 -31.7724
5 1.43547 7.03028 -31.9456
4 1.6329 6.14528 -30.1812
3 0.422535 6.40702 -29.8226
5 0.113868 5.41858 -29.3441
5 -0.194475 6.49288 -30.7732
3 -0.293289 7.5908 -28.7356
5 0.191849 8.58936 -28.9696
5 -1.37552 7.67675 -29.0843
4 -0.470483 7.54917 -27.5209
3 0.557164 7.6236 -26.8462
5 0.969512 8.66014 -27.0576
5 0.0757995 7.69011 -25.8149
3 1.98004 6.5908 -26.5726
5 2.78451 7.38053 -26.3822
5 1.79607 6.11645 -25.5575
4 2.71182 5.79284 -27.2676
3 2.56264 4.47841 -27.307
5 2.21858 4.15627 -26.2773
5 3.65982 4.18527 -27.3835
3 1.77063 3.24712 -28.4558
5 0.692895 3.59697 -28.4888
5 2.23081 3.5127 -29.4573
6 1.71781 2.00553 -28.4332
7 1.2343 1.66601 -29.1955
