 # tet-CuSiNiCr structure
  
           8  atoms
           4  atom types
 
      0.000000000000       2.911956000000  xlo xhi
      0.000000000000      10.838406000000  ylo yhi
      0.000000000000       2.911959000000  zlo zhi
      0.0 0.0 0.0 xy xz yz
     
Masses
 
            1   63.54600000             # Cu
            2   58.69340000             # Ni
            3   28.08500000             # Si
            4   51.99610000             # Cr
 
Atoms # atomic
 
         1    1        0.000000000000      10.828564727352       2.911959000000
         2    1        1.455978000000       1.364642022648       1.455979500000
         3    2        0.000000000000       2.875992708912       2.911959000000
         4    2        1.455978000000       9.317214041088       1.455979500000
         5    3        1.455978000000       4.006720253268       1.455979500000
         6    3        2.911956000000       8.186486496732       0.000000000000
         7    4        2.911956000000       5.495223579684       0.000000000000
         8    4        1.455978000000       6.697983170316       1.455979500000
