ITEM: TIMESTEP
10120
ITEM: NUMBER OF ATOMS
31
ITEM: BOX BOUNDS ss ss ss
5.4373649949341747e+01 6.3349780174148577e+01
7.2363275630558865e+00 1.8275129156621176e+01
4.0761005694584810e+01 4.5932181312165575e+01
ITEM: ATOMS id type xs ys zs
5 7 0.00033422 0.0824938 0.000580139
2 5 0.209199 0.148848 0.127168
3 5 0.157443 0.000271769 0.250735
7 5 0.173571 0.238867 0.61284
8 5 0.137985 0.0835906 0.720842
12 5 0.299301 0.268349 0.941182
11 5 0.452163 0.163298 0.99942
6 3 0.208285 0.141142 0.58563
10 3 0.389724 0.213982 0.839789
1 3 0.131597 0.100558 0.266123
4 6 0.00497397 0.113056 0.17508
9 4 0.336697 0.131599 0.701353
15 5 0.508514 0.30436 0.50701
14 5 0.626296 0.278642 0.7925
13 3 0.512487 0.311908 0.726298
21 5 0.490148 0.635027 0.745017
18 5 0.645872 0.427306 0.485817
19 5 0.716857 0.455978 0.814756
22 5 0.578455 0.623965 0.424342
17 3 0.617178 0.469416 0.680864
20 3 0.597189 0.608366 0.639893
16 4 0.513917 0.418466 0.77091
23 4 0.700549 0.6668 0.722135
26 5 0.743788 0.742553 0.402668
25 5 0.630914 0.823514 0.643047
29 5 0.876268 0.889497 0.887763
28 5 0.98841 0.809248 0.648584
31 7 0.999666 0.999728 0.635689
24 3 0.734544 0.766037 0.615673
27 3 0.885153 0.867423 0.673934
30 6 0.91136 0.962788 0.564956
