31
Atoms. Timestep: 10120
3 55.5549 8.34637 42.1372
5 56.2514 8.87944 41.4186
5 55.7869 7.23933 42.0576
6 54.4183 8.48433 41.6664
7 54.3766 8.14696 40.764
3 56.2432 8.79437 43.7894
5 55.9316 9.87314 43.9301
5 55.6122 8.15907 44.4886
4 57.3959 8.68903 44.3878
3 57.8719 9.59843 45.1037
5 58.4323 9.03894 45.9292
5 57.0602 10.1986 45.628
3 58.9738 10.6794 44.5168
5 59.9954 10.3122 44.8592
5 58.9381 10.5961 43.3828
4 58.9866 11.8557 44.7475
3 59.9135 12.4181 44.2819
5 60.1711 11.9533 43.2733
5 60.8082 12.2698 44.9743
3 59.7341 13.952 44.07
5 58.7733 14.2463 44.6136
5 59.5659 14.1242 42.9554
4 60.6619 14.597 44.4953
3 60.967 15.6925 43.9448
5 60.0368 16.3269 44.0863
5 61.05 15.4332 42.8433
3 62.3189 16.8116 44.246
5 63.2457 16.1695 44.1149
5 62.2391 17.0553 45.3518
6 62.5541 17.8644 43.6825
7 63.3468 18.2721 44.0483
