31
Atoms. Timestep: 10120
3 -95.3375 61.4082 -79.6111
5 -94.8819 60.3698 -79.6219
5 -95.1174 61.8725 -80.6219
6 -96.5618 61.2351 -79.5815
7 -96.8511 60.7007 -80.3301
3 -94.2208 62.3359 -78.4767
5 -94.7244 63.3427 -78.3571
5 -94.3565 61.7707 -77.4998
4 -92.9331 62.5584 -78.4281
3 -92.4326 63.6874 -78.1855
5 -93.2108 64.4151 -77.7904
5 -91.7375 63.4607 -77.3062
3 -91.4538 64.5686 -79.2308
5 -90.9488 63.816 -79.9149
5 -90.6416 65.0094 -78.5621
4 -91.7649 65.5351 -79.8958
3 -91.5144 65.4879 -81.0833
5 -91.1165 66.5307 -81.3183
5 -90.6573 64.7609 -81.2547
3 -92.6684 65.176 -82.2337
5 -93.1253 66.1817 -82.5055
5 -93.4723 64.571 -81.6982
4 -92.4196 64.5657 -83.2731
3 -92.988 64.8719 -84.3369
5 -94.0102 64.374 -84.2871
5 -93.1517 65.9963 -84.329
3 -92.3882 64.4999 -85.8831
5 -91.3448 64.9485 -85.9299
5 -92.2714 63.3695 -85.9088
6 -92.9478 64.8145 -86.8867
7 -92.4427 64.5187 -87.6508
