ITEM: TIMESTEP
10120
ITEM: NUMBER OF ATOMS
31
ITEM: BOX BOUNDS ss ss ss
-9.6854089255684428e+01 -9.0638611826096252e+01
6.0366808263840156e+01 6.6533743412100108e+01
-8.7653800954765572e+01 -7.7303192103558032e+01
ITEM: ATOMS id type xs ys zs
30 6 0.628483 0.721216 0.0741089
27 3 0.718509 0.670206 0.171075
24 3 0.622002 0.730532 0.320455
26 5 0.59568 0.912843 0.321219
25 5 0.457544 0.649787 0.325266
28 5 0.886381 0.74294 0.166547
29 5 0.737298 0.486906 0.168585
31 7 0.70974 0.673257 0.000289838
23 4 0.713453 0.680878 0.42323
17 3 0.859089 0.830406 0.634791
20 3 0.673426 0.779829 0.523655
18 5 0.92312 0.999514 0.612087
19 5 0.996992 0.712522 0.618232
21 5 0.599925 0.942913 0.497394
22 5 0.544091 0.681726 0.57539
4 6 0.047024 0.140801 0.779888
1 3 0.243995 0.168867 0.777032
9 4 0.630848 0.355378 0.891324
16 4 0.818792 0.838068 0.749525
6 3 0.423659 0.319302 0.886627
10 3 0.711373 0.538455 0.914758
13 3 0.868845 0.68135 0.813769
5 7 0.000482666 0.0541355 0.70756
2 5 0.3173 0.000486465 0.775983
3 5 0.279418 0.244155 0.679375
7 5 0.342646 0.48255 0.898175
8 5 0.401841 0.227652 0.981007
12 5 0.823208 0.501694 0.99971
11 5 0.58617 0.656452 0.952929
14 5 0.950097 0.559304 0.747674
15 5 0.999517 0.752825 0.878371
