ITEM: TIMESTEP
10120
ITEM: NUMBER OF ATOMS
31
ITEM: BOX BOUNDS ss ss ss
6.9548281488638528e+00 1.3830615223720399e+01
3.3298241949456950e+00 1.2079248505436329e+01
7.9001836759924558e+01 8.5411553116915897e+01
ITEM: ATOMS id type xs ys zs
18 5 0.611201 0.484177 0.451203
26 5 0.942269 0.237689 0.0328627
25 5 0.999564 0.377236 0.235433
28 5 0.733228 0.0760894 0.29067
29 5 0.772347 0.215189 0.498267
31 7 0.90821 0.00034288 0.538717
24 3 0.879207 0.302263 0.171344
23 4 0.763113 0.392233 0.0746775
27 3 0.846072 0.154262 0.363489
30 6 0.968206 0.0701702 0.441861
2 5 0.384049 0.785347 0.928974
3 5 0.442614 0.906499 0.707246
7 5 0.0577407 0.96554 0.648707
8 5 0.000436314 0.844918 0.871349
12 5 0.0401333 0.572229 0.459034
11 5 0.0788674 0.749409 0.318456
14 5 0.376521 0.539084 0.550805
15 5 0.402677 0.737072 0.634557
6 3 0.0976464 0.854653 0.728979
10 3 0.107955 0.690649 0.473353
13 3 0.362202 0.661979 0.496372
4 6 0.415471 0.999657 0.973022
1 3 0.348335 0.89826 0.85169
9 4 0.00917349 0.753475 0.610035
5 7 0.55232 0.984487 0.999532
19 5 0.76898 0.651753 0.436904
21 5 0.647841 0.57907 0.000468039
22 5 0.889701 0.586603 0.114026
17 3 0.643116 0.590771 0.355989
20 3 0.742587 0.52802 0.128971
16 4 0.505268 0.684575 0.373325
