31
Atoms. Timestep: 10120
3 9.34991 11.1891 84.4609
5 9.59547 10.2012 84.9563
5 9.99815 11.2612 83.5351
6 9.81152 12.0762 85.2386
7 10.7525 11.9435 85.4086
3 7.62622 10.8075 83.6744
5 7.35184 11.7777 83.1599
5 6.95783 10.7224 84.5869
4 7.0179 9.9223 82.912
3 7.6971 9.37261 82.0359
5 7.4971 9.88672 81.0431
5 7.23078 8.33649 81.9441
3 9.44525 9.12176 82.1834
5 9.5437 8.0465 82.5323
5 9.72355 9.77878 83.0692
4 10.4289 9.31946 81.3947
3 11.3768 8.49873 81.2836
5 11.1573 7.5661 81.8939
5 12.2422 9.03229 81.8023
3 12.0607 7.9497 79.8285
5 11.4092 8.39635 79.0048
5 13.0722 8.46227 79.7327
4 12.2018 6.76164 79.4805
3 13.0001 5.97445 80.1001
5 13.8276 6.63042 80.5109
5 13.4337 5.40946 79.2125
3 12.7722 4.67953 81.3317
5 11.9963 3.99556 80.8649
5 12.2653 5.21261 82.1956
6 13.612 3.94377 81.834
7 13.1995 3.33282 82.4549
