# LAMMPS data file 

31 atoms
30 bonds
53 angles
34 dihedrals

7 atom types
6 bond types
9 angle types
14 dihedral types

-15.0 15.0 xlo xhi
-15.0 15.0 ylo yhi
-15.0 15.0 zlo zhi

Atoms

1 1 3 0.05 -8.4 -0.0 0.0 
2 1 5 0.09 -8.4 -1.0 0.0 
3 1 5 0.09 -8.4 1.0 0.0 
4 1 6 -0.65 -9.8 -0.0 0.0 
5 1 7 0.42 -9.8 -1.0 0.0 
6 1 3 -0.01 -7.000000000000001 0.0 0.0 
7 1 5 0.09 -7.000000000000001 1.0 0.0 
8 1 5 0.09 -7.000000000000001 -1.0 0.0 
9 1 4 -0.34 -5.6000000000000005 0.0 0.0 
10 1 3 -0.01 -4.2 0.0 0.0 
11 1 5 0.09 -4.2 1.0 0.0 
12 1 5 0.09 -4.2 -1.0 0.0 
13 1 3 -0.01 -1.4000000000000004 0.0 0.0 
14 1 5 0.09 -1.4000000000000004 1.0 0.0 
15 1 5 0.09 -1.4000000000000004 -1.0 0.0 
16 1 4 -0.34 0.0 0.0 0.0 
17 1 3 -0.01 1.4000000000000004 0.0 0.0 
18 1 5 0.09 1.4000000000000004 1.0 0.0 
19 1 5 0.09 1.4000000000000004 -1.0 0.0 
20 1 3 -0.01 4.2 0.0 0.0 
21 1 5 0.09 4.2 1.0 0.0 
22 1 5 0.09 4.2 -1.0 0.0 
23 1 4 -0.34 5.6000000000000005 0.0 0.0 
24 1 3 -0.01 7.000000000000001 0.0 0.0 
25 1 5 0.09 7.000000000000001 1.0 0.0 
26 1 5 0.09 7.000000000000001 -1.0 0.0 
27 1 3 0.05 8.400000000000002 0.0 0.0 
28 1 5 0.09 8.400000000000002 1.0 0.0 
29 1 5 0.09 8.400000000000002 -1.0 0.0 
30 1 6 -0.65 9.8 0.0 0.0 
31 1 7 0.42 9.8 1.0 0.0 

Bonds

1 2 1 6 
2 2 10 13 
3 2 17 20 
4 2 24 27 
5 5 1 4 
6 4 6 9 
7 4 9 10 
8 4 13 16 
9 4 16 17 
10 4 20 23 
11 4 23 24 
12 5 27 30 
13 4 1 2 
14 4 1 3 
15 4 6 7 
16 4 6 8 
17 4 10 11 
18 4 10 12 
19 4 13 14 
20 4 13 15 
21 4 17 18 
22 4 17 19 
23 4 20 21 
24 4 20 22 
25 4 24 25 
26 4 24 26 
27 4 27 28 
28 4 27 29 
29 6 4 5 
30 6 30 31 

Angles

1 6 2 1 3 
2 7 2 1 4 
3 3 2 1 6 
4 7 3 1 4 
5 3 3 1 6 
6 8 4 1 6 
7 2 1 4 5 
8 3 1 6 7 
9 3 1 6 8 
10 4 1 6 9 
11 6 7 6 8 
12 5 7 6 9 
13 5 8 6 9 
14 9 6 9 10 
15 5 9 10 11 
16 5 9 10 12 
17 4 9 10 13 
18 6 11 10 12 
19 3 11 10 13 
20 3 12 10 13 
21 3 10 13 14 
22 3 10 13 15 
23 4 10 13 16 
24 6 14 13 15 
25 5 14 13 16 
26 5 15 13 16 
27 9 13 16 17 
28 5 16 17 18 
29 5 16 17 19 
30 4 16 17 20 
31 6 18 17 19 
32 3 18 17 20 
33 3 19 17 20 
34 3 17 20 21 
35 3 17 20 22 
36 4 17 20 23 
37 6 21 20 22 
38 5 21 20 23 
39 5 22 20 23 
40 9 20 23 24 
41 5 23 24 25 
42 5 23 24 26 
43 4 23 24 27 
44 6 25 24 26 
45 3 25 24 27 
46 3 26 24 27 
47 3 24 27 28 
48 3 24 27 29 
49 8 24 27 30 
50 6 28 27 29 
51 7 28 27 30 
52 7 29 27 30 
53 2 27 30 31 

Dihedrals

1 6 6 1 4 5 
2 7 6 1 4 5 
3 8 6 1 4 5 
4 12 4 1 6 9 
5 13 4 1 6 9 
6 14 4 1 6 9 
7 1 1 6 9 10 
8 2 1 6 9 10 
9 3 1 6 9 10 
10 1 6 9 10 13 
11 2 6 9 10 13 
12 3 6 9 10 13 
13 4 9 10 13 16 
14 5 9 10 13 16 
15 1 10 13 16 17 
16 2 10 13 16 17 
17 3 10 13 16 17 
18 1 13 16 17 20 
19 2 13 16 17 20 
20 3 13 16 17 20 
21 4 16 17 20 23 
22 5 16 17 20 23 
23 1 17 20 23 24 
24 2 17 20 23 24 
25 3 17 20 23 24 
26 1 20 23 24 27 
27 2 20 23 24 27 
28 3 20 23 24 27 
29 12 23 24 27 30 
30 13 23 24 27 30 
31 14 23 24 27 30 
32 6 24 27 30 31 
33 7 24 27 30 31 
34 8 24 27 30 31 
