ITEM: TIMESTEP
0
ITEM: NUMBER OF ATOMS
1137
ITEM: BOX BOUNDS pp pp pp
-1.7039999999999999e+01 1.7039999999999999e+01
-1.7039999999999999e+01 1.7039999999999999e+01
-3.1359999999999999e+01 3.1359999999999999e+01
ITEM: ATOMS id type xs ys zs
13 4 0.0416667 0.0416667 0
14 3 0.0416667 0.125 0
15 3 0.125 0.0416667 0
16 4 0.125 0.125 0
17 3 0.0416667 0.0416667 0.0452806
18 4 0.0416667 0.125 0.0452806
19 4 0.125 0.0416667 0.0452806
20 3 0.125 0.125 0.0452806
21 4 0.0416667 0.0416667 0.0905612
22 3 0.0416667 0.125 0.0905612
23 3 0.125 0.0416667 0.0905612
24 4 0.125 0.125 0.0905612
181 4 0.208333 0.0416667 0
182 3 0.208333 0.125 0
183 3 0.291667 0.0416667 0
184 4 0.291667 0.125 0
185 3 0.208333 0.0416667 0.0452806
186 4 0.208333 0.125 0.0452806
187 4 0.291667 0.0416667 0.0452806
188 3 0.291667 0.125 0.0452806
189 4 0.208333 0.0416667 0.0905612
190 3 0.208333 0.125 0.0905612
191 3 0.291667 0.0416667 0.0905612
192 4 0.291667 0.125 0.0905612
349 4 0.375 0.0416667 0
350 3 0.375 0.125 0
353 3 0.375 0.0416667 0.0452806
354 4 0.375 0.125 0.0452806
357 4 0.375 0.0416667 0.0905612
358 3 0.375 0.125 0.0905612
351 3 0.458333 0.0416667 0
352 4 0.458333 0.125 0
355 4 0.458333 0.0416667 0.0452806
356 3 0.458333 0.125 0.0452806
359 3 0.458333 0.0416667 0.0905612
360 4 0.458333 0.125 0.0905612
517 4 0.541667 0.0416667 0
518 3 0.541667 0.125 0
521 3 0.541667 0.0416667 0.0452806
522 4 0.541667 0.125 0.0452806
525 4 0.541667 0.0416667 0.0905612
526 3 0.541667 0.125 0.0905612
519 3 0.625 0.0416667 0
520 4 0.625 0.125 0
523 4 0.625 0.0416667 0.0452806
524 3 0.625 0.125 0.0452806
527 3 0.625 0.0416667 0.0905612
528 4 0.625 0.125 0.0905612
685 4 0.708333 0.0416667 0
686 3 0.708333 0.125 0
687 3 0.791667 0.0416667 0
688 4 0.791667 0.125 0
689 3 0.708333 0.0416667 0.0452806
690 4 0.708333 0.125 0.0452806
691 4 0.791667 0.0416667 0.0452806
692 3 0.791667 0.125 0.0452806
693 4 0.708333 0.0416667 0.0905612
694 3 0.708333 0.125 0.0905612
695 3 0.791667 0.0416667 0.0905612
696 4 0.791667 0.125 0.0905612
853 4 0.875 0.0416667 0
854 3 0.875 0.125 0
855 3 0.958333 0.0416667 0
856 4 0.958333 0.125 0
857 3 0.875 0.0416667 0.0452806
858 4 0.875 0.125 0.0452806
859 4 0.958333 0.0416667 0.0452806
860 3 0.958333 0.125 0.0452806
861 4 0.875 0.0416667 0.0905612
862 3 0.875 0.125 0.0905612
863 3 0.958333 0.0416667 0.0905612
864 4 0.958333 0.125 0.0905612
41 4 0.0416667 0.208333 0
42 3 0.0416667 0.291667 0
43 3 0.125 0.208333 0
44 4 0.125 0.291667 0
45 3 0.0416667 0.208333 0.0452806
46 4 0.0416667 0.291667 0.0452806
47 4 0.125 0.208333 0.0452806
48 3 0.125 0.291667 0.0452806
49 4 0.0416667 0.208333 0.0905612
50 3 0.0416667 0.291667 0.0905612
51 3 0.125 0.208333 0.0905612
52 4 0.125 0.291667 0.0905612
69 4 0.0416667 0.375 0
71 3 0.125 0.375 0
73 3 0.0416667 0.375 0.0452806
75 4 0.125 0.375 0.0452806
77 4 0.0416667 0.375 0.0905612
79 3 0.125 0.375 0.0905612
209 4 0.208333 0.208333 0
210 3 0.208333 0.291667 0
211 3 0.291667 0.208333 0
212 4 0.291667 0.291667 0
213 3 0.208333 0.208333 0.0452806
214 4 0.208333 0.291667 0.0452806
215 4 0.291667 0.208333 0.0452806
216 3 0.291667 0.291667 0.0452806
217 4 0.208333 0.208333 0.0905612
218 3 0.208333 0.291667 0.0905612
219 3 0.291667 0.208333 0.0905612
220 4 0.291667 0.291667 0.0905612
237 4 0.208333 0.375 0
239 3 0.291667 0.375 0
241 3 0.208333 0.375 0.0452806
243 4 0.291667 0.375 0.0452806
245 4 0.208333 0.375 0.0905612
247 3 0.291667 0.375 0.0905612
377 4 0.375 0.208333 0
378 3 0.375 0.291667 0
381 3 0.375 0.208333 0.0452806
382 4 0.375 0.291667 0.0452806
385 4 0.375 0.208333 0.0905612
386 3 0.375 0.291667 0.0905612
405 4 0.375 0.375 0
409 3 0.375 0.375 0.0452806
413 4 0.375 0.375 0.0905612
379 3 0.458333 0.208333 0
380 4 0.458333 0.291667 0
383 4 0.458333 0.208333 0.0452806
384 3 0.458333 0.291667 0.0452806
387 3 0.458333 0.208333 0.0905612
388 4 0.458333 0.291667 0.0905612
407 3 0.458333 0.375 0
411 4 0.458333 0.375 0.0452806
415 3 0.458333 0.375 0.0905612
545 4 0.541667 0.208333 0
546 3 0.541667 0.291667 0
549 3 0.541667 0.208333 0.0452806
550 4 0.541667 0.291667 0.0452806
553 4 0.541667 0.208333 0.0905612
554 3 0.541667 0.291667 0.0905612
573 4 0.541667 0.375 0
577 3 0.541667 0.375 0.0452806
581 4 0.541667 0.375 0.0905612
547 3 0.625 0.208333 0
548 4 0.625 0.291667 0
551 4 0.625 0.208333 0.0452806
552 3 0.625 0.291667 0.0452806
555 3 0.625 0.208333 0.0905612
556 4 0.625 0.291667 0.0905612
575 3 0.625 0.375 0
579 4 0.625 0.375 0.0452806
583 3 0.625 0.375 0.0905612
713 4 0.708333 0.208333 0
714 3 0.708333 0.291667 0
715 3 0.791667 0.208333 0
716 4 0.791667 0.291667 0
717 3 0.708333 0.208333 0.0452806
718 4 0.708333 0.291667 0.0452806
719 4 0.791667 0.208333 0.0452806
720 3 0.791667 0.291667 0.0452806
721 4 0.708333 0.208333 0.0905612
722 3 0.708333 0.291667 0.0905612
723 3 0.791667 0.208333 0.0905612
724 4 0.791667 0.291667 0.0905612
741 4 0.708333 0.375 0
743 3 0.791667 0.375 0
745 3 0.708333 0.375 0.0452806
747 4 0.791667 0.375 0.0452806
749 4 0.708333 0.375 0.0905612
751 3 0.791667 0.375 0.0905612
881 4 0.875 0.208333 0
882 3 0.875 0.291667 0
883 3 0.958333 0.208333 0
884 4 0.958333 0.291667 0
885 3 0.875 0.208333 0.0452806
886 4 0.875 0.291667 0.0452806
887 4 0.958333 0.208333 0.0452806
888 3 0.958333 0.291667 0.0452806
889 4 0.875 0.208333 0.0905612
890 3 0.875 0.291667 0.0905612
891 3 0.958333 0.208333 0.0905612
892 4 0.958333 0.291667 0.0905612
909 4 0.875 0.375 0
911 3 0.958333 0.375 0
913 3 0.875 0.375 0.0452806
915 4 0.958333 0.375 0.0452806
917 4 0.875 0.375 0.0905612
919 3 0.958333 0.375 0.0905612
70 3 0.0416667 0.458333 0
72 4 0.125 0.458333 0
74 4 0.0416667 0.458333 0.0452806
76 3 0.125 0.458333 0.0452806
78 3 0.0416667 0.458333 0.0905612
80 4 0.125 0.458333 0.0905612
97 4 0.0416667 0.541667 0
99 3 0.125 0.541667 0
101 3 0.0416667 0.541667 0.0452806
103 4 0.125 0.541667 0.0452806
105 4 0.0416667 0.541667 0.0905612
107 3 0.125 0.541667 0.0905612
238 3 0.208333 0.458333 0
240 4 0.291667 0.458333 0
242 4 0.208333 0.458333 0.0452806
244 3 0.291667 0.458333 0.0452806
246 3 0.208333 0.458333 0.0905612
248 4 0.291667 0.458333 0.0905612
265 4 0.208333 0.541667 0
267 3 0.291667 0.541667 0
269 3 0.208333 0.541667 0.0452806
271 4 0.291667 0.541667 0.0452806
273 4 0.208333 0.541667 0.0905612
275 3 0.291667 0.541667 0.0905612
406 3 0.375 0.458333 0
410 4 0.375 0.458333 0.0452806
414 3 0.375 0.458333 0.0905612
433 4 0.375 0.541667 0
437 3 0.375 0.541667 0.0452806
441 4 0.375 0.541667 0.0905612
408 4 0.458333 0.458333 0
412 3 0.458333 0.458333 0.0452806
416 4 0.458333 0.458333 0.0905612
435 3 0.458333 0.541667 0
439 4 0.458333 0.541667 0.0452806
443 3 0.458333 0.541667 0.0905612
574 3 0.541667 0.458333 0
578 4 0.541667 0.458333 0.0452806
582 3 0.541667 0.458333 0.0905612
601 4 0.541667 0.541667 0
605 3 0.541667 0.541667 0.0452806
609 4 0.541667 0.541667 0.0905612
576 4 0.625 0.458333 0
580 3 0.625 0.458333 0.0452806
584 4 0.625 0.458333 0.0905612
603 3 0.625 0.541667 0
607 4 0.625 0.541667 0.0452806
611 3 0.625 0.541667 0.0905612
742 3 0.708333 0.458333 0
744 4 0.791667 0.458333 0
746 4 0.708333 0.458333 0.0452806
748 3 0.791667 0.458333 0.0452806
750 3 0.708333 0.458333 0.0905612
752 4 0.791667 0.458333 0.0905612
769 4 0.708333 0.541667 0
771 3 0.791667 0.541667 0
773 3 0.708333 0.541667 0.0452806
775 4 0.791667 0.541667 0.0452806
777 4 0.708333 0.541667 0.0905612
779 3 0.791667 0.541667 0.0905612
910 3 0.875 0.458333 0
912 4 0.958333 0.458333 0
914 4 0.875 0.458333 0.0452806
916 3 0.958333 0.458333 0.0452806
918 3 0.875 0.458333 0.0905612
920 4 0.958333 0.458333 0.0905612
937 4 0.875 0.541667 0
939 3 0.958333 0.541667 0
941 3 0.875 0.541667 0.0452806
943 4 0.958333 0.541667 0.0452806
945 4 0.875 0.541667 0.0905612
947 3 0.958333 0.541667 0.0905612
98 3 0.0416667 0.625 0
100 4 0.125 0.625 0
102 4 0.0416667 0.625 0.0452806
104 3 0.125 0.625 0.0452806
106 3 0.0416667 0.625 0.0905612
108 4 0.125 0.625 0.0905612
125 4 0.0416667 0.708333 0
126 3 0.0416667 0.791667 0
127 3 0.125 0.708333 0
128 4 0.125 0.791667 0
129 3 0.0416667 0.708333 0.0452806
130 4 0.0416667 0.791667 0.0452806
131 4 0.125 0.708333 0.0452806
132 3 0.125 0.791667 0.0452806
133 4 0.0416667 0.708333 0.0905612
134 3 0.0416667 0.791667 0.0905612
135 3 0.125 0.708333 0.0905612
136 4 0.125 0.791667 0.0905612
266 3 0.208333 0.625 0
268 4 0.291667 0.625 0
270 4 0.208333 0.625 0.0452806
272 3 0.291667 0.625 0.0452806
274 3 0.208333 0.625 0.0905612
276 4 0.291667 0.625 0.0905612
293 4 0.208333 0.708333 0
294 3 0.208333 0.791667 0
295 3 0.291667 0.708333 0
296 4 0.291667 0.791667 0
297 3 0.208333 0.708333 0.0452806
298 4 0.208333 0.791667 0.0452806
299 4 0.291667 0.708333 0.0452806
300 3 0.291667 0.791667 0.0452806
301 4 0.208333 0.708333 0.0905612
302 3 0.208333 0.791667 0.0905612
303 3 0.291667 0.708333 0.0905612
304 4 0.291667 0.791667 0.0905612
434 3 0.375 0.625 0
438 4 0.375 0.625 0.0452806
442 3 0.375 0.625 0.0905612
461 4 0.375 0.708333 0
462 3 0.375 0.791667 0
465 3 0.375 0.708333 0.0452806
466 4 0.375 0.791667 0.0452806
469 4 0.375 0.708333 0.0905612
470 3 0.375 0.791667 0.0905612
436 4 0.458333 0.625 0
440 3 0.458333 0.625 0.0452806
444 4 0.458333 0.625 0.0905612
463 3 0.458333 0.708333 0
464 4 0.458333 0.791667 0
467 4 0.458333 0.708333 0.0452806
468 3 0.458333 0.791667 0.0452806
471 3 0.458333 0.708333 0.0905612
472 4 0.458333 0.791667 0.0905612
602 3 0.541667 0.625 0
606 4 0.541667 0.625 0.0452806
610 3 0.541667 0.625 0.0905612
629 4 0.541667 0.708333 0
630 3 0.541667 0.791667 0
633 3 0.541667 0.708333 0.0452806
634 4 0.541667 0.791667 0.0452806
637 4 0.541667 0.708333 0.0905612
638 3 0.541667 0.791667 0.0905612
604 4 0.625 0.625 0
608 3 0.625 0.625 0.0452806
612 4 0.625 0.625 0.0905612
631 3 0.625 0.708333 0
632 4 0.625 0.791667 0
635 4 0.625 0.708333 0.0452806
636 3 0.625 0.791667 0.0452806
639 3 0.625 0.708333 0.0905612
640 4 0.625 0.791667 0.0905612
770 3 0.708333 0.625 0
772 4 0.791667 0.625 0
774 4 0.708333 0.625 0.0452806
776 3 0.791667 0.625 0.0452806
778 3 0.708333 0.625 0.0905612
780 4 0.791667 0.625 0.0905612
797 4 0.708333 0.708333 0
798 3 0.708333 0.791667 0
799 3 0.791667 0.708333 0
800 4 0.791667 0.791667 0
801 3 0.708333 0.708333 0.0452806
802 4 0.708333 0.791667 0.0452806
803 4 0.791667 0.708333 0.0452806
804 3 0.791667 0.791667 0.0452806
805 4 0.708333 0.708333 0.0905612
806 3 0.708333 0.791667 0.0905612
807 3 0.791667 0.708333 0.0905612
808 4 0.791667 0.791667 0.0905612
938 3 0.875 0.625 0
940 4 0.958333 0.625 0
942 4 0.875 0.625 0.0452806
944 3 0.958333 0.625 0.0452806
946 3 0.875 0.625 0.0905612
948 4 0.958333 0.625 0.0905612
965 4 0.875 0.708333 0
966 3 0.875 0.791667 0
967 3 0.958333 0.708333 0
968 4 0.958333 0.791667 0
969 3 0.875 0.708333 0.0452806
970 4 0.875 0.791667 0.0452806
971 4 0.958333 0.708333 0.0452806
972 3 0.958333 0.791667 0.0452806
973 4 0.875 0.708333 0.0905612
974 3 0.875 0.791667 0.0905612
975 3 0.958333 0.708333 0.0905612
976 4 0.958333 0.791667 0.0905612
153 4 0.0416667 0.875 0
154 3 0.0416667 0.958333 0
155 3 0.125 0.875 0
156 4 0.125 0.958333 0
157 3 0.0416667 0.875 0.0452806
158 4 0.0416667 0.958333 0.0452806
159 4 0.125 0.875 0.0452806
160 3 0.125 0.958333 0.0452806
161 4 0.0416667 0.875 0.0905612
162 3 0.0416667 0.958333 0.0905612
163 3 0.125 0.875 0.0905612
164 4 0.125 0.958333 0.0905612
321 4 0.208333 0.875 0
322 3 0.208333 0.958333 0
323 3 0.291667 0.875 0
324 4 0.291667 0.958333 0
325 3 0.208333 0.875 0.0452806
326 4 0.208333 0.958333 0.0452806
327 4 0.291667 0.875 0.0452806
328 3 0.291667 0.958333 0.0452806
329 4 0.208333 0.875 0.0905612
330 3 0.208333 0.958333 0.0905612
331 3 0.291667 0.875 0.0905612
332 4 0.291667 0.958333 0.0905612
489 4 0.375 0.875 0
490 3 0.375 0.958333 0
493 3 0.375 0.875 0.0452806
494 4 0.375 0.958333 0.0452806
497 4 0.375 0.875 0.0905612
498 3 0.375 0.958333 0.0905612
491 3 0.458333 0.875 0
492 4 0.458333 0.958333 0
495 4 0.458333 0.875 0.0452806
496 3 0.458333 0.958333 0.0452806
499 3 0.458333 0.875 0.0905612
500 4 0.458333 0.958333 0.0905612
657 4 0.541667 0.875 0
658 3 0.541667 0.958333 0
661 3 0.541667 0.875 0.0452806
662 4 0.541667 0.958333 0.0452806
665 4 0.541667 0.875 0.0905612
666 3 0.541667 0.958333 0.0905612
659 3 0.625 0.875 0
660 4 0.625 0.958333 0
663 4 0.625 0.875 0.0452806
664 3 0.625 0.958333 0.0452806
667 3 0.625 0.875 0.0905612
668 4 0.625 0.958333 0.0905612
825 4 0.708333 0.875 0
826 3 0.708333 0.958333 0
827 3 0.791667 0.875 0
828 4 0.791667 0.958333 0
829 3 0.708333 0.875 0.0452806
830 4 0.708333 0.958333 0.0452806
831 4 0.791667 0.875 0.0452806
832 3 0.791667 0.958333 0.0452806
833 4 0.708333 0.875 0.0905612
834 3 0.708333 0.958333 0.0905612
835 3 0.791667 0.875 0.0905612
836 4 0.791667 0.958333 0.0905612
993 4 0.875 0.875 0
994 3 0.875 0.958333 0
995 3 0.958333 0.875 0
996 4 0.958333 0.958333 0
997 3 0.875 0.875 0.0452806
998 4 0.875 0.958333 0.0452806
999 4 0.958333 0.875 0.0452806
1000 3 0.958333 0.958333 0.0452806
1001 4 0.875 0.875 0.0905612
1002 3 0.875 0.958333 0.0905612
1003 3 0.958333 0.875 0.0905612
1004 4 0.958333 0.958333 0.0905612
25 3 0.0416667 0.0416667 0.135842
26 4 0.0416667 0.125 0.135842
27 4 0.125 0.0416667 0.135842
28 3 0.125 0.125 0.135842
193 3 0.208333 0.0416667 0.135842
194 4 0.208333 0.125 0.135842
195 4 0.291667 0.0416667 0.135842
196 3 0.291667 0.125 0.135842
361 3 0.375 0.0416667 0.135842
362 4 0.375 0.125 0.135842
363 4 0.458333 0.0416667 0.135842
364 3 0.458333 0.125 0.135842
529 3 0.541667 0.0416667 0.135842
530 4 0.541667 0.125 0.135842
531 4 0.625 0.0416667 0.135842
532 3 0.625 0.125 0.135842
697 3 0.708333 0.0416667 0.135842
698 4 0.708333 0.125 0.135842
699 4 0.791667 0.0416667 0.135842
700 3 0.791667 0.125 0.135842
865 3 0.875 0.0416667 0.135842
866 4 0.875 0.125 0.135842
867 4 0.958333 0.0416667 0.135842
868 3 0.958333 0.125 0.135842
53 3 0.0416667 0.208333 0.135842
54 4 0.0416667 0.291667 0.135842
55 4 0.125 0.208333 0.135842
56 3 0.125 0.291667 0.135842
81 3 0.0416667 0.375 0.135842
83 4 0.125 0.375 0.135842
221 3 0.208333 0.208333 0.135842
222 4 0.208333 0.291667 0.135842
223 4 0.291667 0.208333 0.135842
224 3 0.291667 0.291667 0.135842
249 3 0.208333 0.375 0.135842
251 4 0.291667 0.375 0.135842
389 3 0.375 0.208333 0.135842
390 4 0.375 0.291667 0.135842
417 3 0.375 0.375 0.135842
391 4 0.458333 0.208333 0.135842
392 3 0.458333 0.291667 0.135842
419 4 0.458333 0.375 0.135842
557 3 0.541667 0.208333 0.135842
558 4 0.541667 0.291667 0.135842
585 3 0.541667 0.375 0.135842
559 4 0.625 0.208333 0.135842
560 3 0.625 0.291667 0.135842
587 4 0.625 0.375 0.135842
725 3 0.708333 0.208333 0.135842
726 4 0.708333 0.291667 0.135842
727 4 0.791667 0.208333 0.135842
728 3 0.791667 0.291667 0.135842
753 3 0.708333 0.375 0.135842
755 4 0.791667 0.375 0.135842
893 3 0.875 0.208333 0.135842
894 4 0.875 0.291667 0.135842
895 4 0.958333 0.208333 0.135842
896 3 0.958333 0.291667 0.135842
921 3 0.875 0.375 0.135842
923 4 0.958333 0.375 0.135842
82 4 0.0416667 0.458333 0.135842
84 3 0.125 0.458333 0.135842
109 3 0.0416667 0.541667 0.135842
111 4 0.125 0.541667 0.135842
250 4 0.208333 0.458333 0.135842
252 3 0.291667 0.458333 0.135842
277 3 0.208333 0.541667 0.135842
279 4 0.291667 0.541667 0.135842
418 4 0.375 0.458333 0.135842
445 3 0.375 0.541667 0.135842
420 3 0.458333 0.458333 0.135842
447 4 0.458333 0.541667 0.135842
586 4 0.541667 0.458333 0.135842
613 3 0.541667 0.541667 0.135842
588 3 0.625 0.458333 0.135842
615 4 0.625 0.541667 0.135842
754 4 0.708333 0.458333 0.135842
756 3 0.791667 0.458333 0.135842
781 3 0.708333 0.541667 0.135842
783 4 0.791667 0.541667 0.135842
922 4 0.875 0.458333 0.135842
924 3 0.958333 0.458333 0.135842
949 3 0.875 0.541667 0.135842
951 4 0.958333 0.541667 0.135842
110 4 0.0416667 0.625 0.135842
112 3 0.125 0.625 0.135842
137 3 0.0416667 0.708333 0.135842
138 4 0.0416667 0.791667 0.135842
139 4 0.125 0.708333 0.135842
140 3 0.125 0.791667 0.135842
278 4 0.208333 0.625 0.135842
280 3 0.291667 0.625 0.135842
305 3 0.208333 0.708333 0.135842
306 4 0.208333 0.791667 0.135842
307 4 0.291667 0.708333 0.135842
308 3 0.291667 0.791667 0.135842
446 4 0.375 0.625 0.135842
473 3 0.375 0.708333 0.135842
474 4 0.375 0.791667 0.135842
448 3 0.458333 0.625 0.135842
475 4 0.458333 0.708333 0.135842
476 3 0.458333 0.791667 0.135842
614 4 0.541667 0.625 0.135842
641 3 0.541667 0.708333 0.135842
642 4 0.541667 0.791667 0.135842
616 3 0.625 0.625 0.135842
643 4 0.625 0.708333 0.135842
644 3 0.625 0.791667 0.135842
782 4 0.708333 0.625 0.135842
784 3 0.791667 0.625 0.135842
809 3 0.708333 0.708333 0.135842
810 4 0.708333 0.791667 0.135842
811 4 0.791667 0.708333 0.135842
812 3 0.791667 0.791667 0.135842
950 4 0.875 0.625 0.135842
952 3 0.958333 0.625 0.135842
977 3 0.875 0.708333 0.135842
978 4 0.875 0.791667 0.135842
979 4 0.958333 0.708333 0.135842
980 3 0.958333 0.791667 0.135842
165 3 0.0416667 0.875 0.135842
166 4 0.0416667 0.958333 0.135842
167 4 0.125 0.875 0.135842
168 3 0.125 0.958333 0.135842
333 3 0.208333 0.875 0.135842
334 4 0.208333 0.958333 0.135842
335 4 0.291667 0.875 0.135842
336 3 0.291667 0.958333 0.135842
501 3 0.375 0.875 0.135842
502 4 0.375 0.958333 0.135842
503 4 0.458333 0.875 0.135842
504 3 0.458333 0.958333 0.135842
669 3 0.541667 0.875 0.135842
670 4 0.541667 0.958333 0.135842
671 4 0.625 0.875 0.135842
672 3 0.625 0.958333 0.135842
837 3 0.708333 0.875 0.135842
838 4 0.708333 0.958333 0.135842
839 4 0.791667 0.875 0.135842
840 3 0.791667 0.958333 0.135842
1005 3 0.875 0.875 0.135842
1006 4 0.875 0.958333 0.135842
1007 4 0.958333 0.875 0.135842
1008 3 0.958333 0.958333 0.135842
1012 1 0.198065 0.0660234 0.251116
1014 2 0.191028 0.0932144 0.251116
1013 2 0.226152 0.0660184 0.251116
1024 1 0.594192 0.0660234 0.251116
1026 2 0.587155 0.0932144 0.251116
1027 1 0.594192 0.198066 0.251116
1025 2 0.622279 0.0660184 0.251116
1028 2 0.622279 0.198061 0.251116
1039 1 0.858276 0.0660234 0.251116
1040 2 0.886363 0.0660184 0.251116
1041 2 0.851239 0.0932144 0.251116
1029 2 0.587155 0.225257 0.251116
1042 1 0.858276 0.330108 0.251116
1043 2 0.886363 0.330103 0.251116
1044 2 0.851239 0.357299 0.251116
1015 1 0.198065 0.594192 0.251116
1016 2 0.226152 0.594187 0.251116
1018 1 0.330107 0.594192 0.251116
1019 2 0.358194 0.594187 0.251116
1021 1 0.46215 0.46215 0.251116
1022 2 0.490236 0.462145 0.251116
1023 2 0.455113 0.489341 0.251116
1030 1 0.594192 0.46215 0.251116
1032 2 0.587155 0.489341 0.251116
1033 1 0.594192 0.594192 0.251116
1031 2 0.622279 0.462145 0.251116
1034 2 0.622279 0.594187 0.251116
1009 1 0.0660229 0.726235 0.251116
1010 2 0.0941097 0.72623 0.251116
1011 2 0.0589858 0.753426 0.251116
1017 2 0.191028 0.621383 0.251116
1020 2 0.32307 0.621383 0.251116
1035 2 0.587155 0.621383 0.251116
1036 1 0.726234 0.726235 0.251116
1037 2 0.754321 0.72623 0.251116
1038 2 0.719197 0.753426 0.251116
1066 1 0.0660229 0.0660234 0.394611
1067 2 0.0941097 0.0660184 0.394611
1068 2 0.0589858 0.0932144 0.394611
1075 1 0.198065 0.0660234 0.394611
1077 2 0.191028 0.0932144 0.394611
1076 2 0.226152 0.0660184 0.394611
1048 1 0.46215 0.198066 0.322864
1049 2 0.490236 0.198061 0.322864
1057 1 0.594192 0.0660234 0.322864
1059 2 0.587155 0.0932144 0.322864
1081 1 0.46215 0.0660234 0.394611
1082 2 0.490236 0.0660184 0.394611
1083 2 0.455113 0.0932144 0.394611
1090 1 0.594192 0.198066 0.394611
1058 2 0.622279 0.0660184 0.322864
1091 2 0.622279 0.198061 0.394611
1093 1 0.726234 0.0660234 0.394611
1094 2 0.754321 0.0660184 0.394611
1095 2 0.719197 0.0932144 0.394611
1096 1 0.858276 0.0660234 0.394611
1097 2 0.886363 0.0660184 0.394611
1098 2 0.851239 0.0932144 0.394611
1050 2 0.455113 0.225257 0.322864
1092 2 0.587155 0.225257 0.394611
1045 1 0.198065 0.594192 0.322864
1069 1 0.0660229 0.46215 0.394611
1070 2 0.0941097 0.462145 0.394611
1071 2 0.0589858 0.489341 0.394611
1072 1 0.0660229 0.594192 0.394611
1073 2 0.0941097 0.594187 0.394611
1078 1 0.198065 0.594192 0.394611
1046 2 0.226152 0.594187 0.322864
1079 2 0.226152 0.594187 0.394611
1051 1 0.46215 0.594192 0.322864
1052 2 0.490236 0.594187 0.322864
1060 1 0.726234 0.594192 0.322864
1061 2 0.754321 0.594187 0.322864
1047 2 0.191028 0.621383 0.322864
1074 2 0.0589858 0.621383 0.394611
1080 2 0.191028 0.621383 0.394611
1053 2 0.455113 0.621383 0.322864
1084 1 0.46215 0.726235 0.394611
1085 2 0.490236 0.72623 0.394611
1086 2 0.455113 0.753426 0.394611
1062 2 0.719197 0.621383 0.322864
1054 1 0.46215 0.858277 0.322864
1055 2 0.490236 0.858272 0.322864
1056 2 0.455113 0.885468 0.322864
1087 1 0.46215 0.858277 0.394611
1088 2 0.490236 0.858272 0.394611
1089 2 0.455113 0.885468 0.394611
1063 1 0.858276 0.858277 0.322864
1064 2 0.886363 0.858272 0.322864
1065 2 0.851239 0.885468 0.322864
1102 1 0.198065 0.46215 0.466358
1104 2 0.191028 0.489341 0.466358
1103 2 0.226152 0.462145 0.466358
1108 1 0.46215 0.46215 0.466358
1109 2 0.490236 0.462145 0.466358
1110 2 0.455113 0.489341 0.466358
1111 1 0.594192 0.46215 0.466358
1113 2 0.587155 0.489341 0.466358
1114 1 0.594192 0.594192 0.466358
1112 2 0.622279 0.462145 0.466358
1115 2 0.622279 0.594187 0.466358
1120 1 0.858276 0.46215 0.466358
1121 2 0.886363 0.462145 0.466358
1122 2 0.851239 0.489341 0.466358
1105 1 0.330107 0.726235 0.466358
1106 2 0.358194 0.72623 0.466358
1107 2 0.32307 0.753426 0.466358
1116 2 0.587155 0.621383 0.466358
1099 1 0.0660229 0.858277 0.466358
1100 2 0.0941097 0.858272 0.466358
1101 2 0.0589858 0.885468 0.466358
1117 1 0.726234 0.858277 0.466358
1118 2 0.754321 0.858272 0.466358
1119 2 0.719197 0.885468 0.466358
1123 1 0.0660229 0.198066 0.538106
1124 2 0.0941097 0.198061 0.538106
1132 1 0.726234 0.0660234 0.538106
1133 2 0.754321 0.0660184 0.538106
1134 2 0.719197 0.0932144 0.538106
1125 2 0.0589858 0.225257 0.538106
1126 1 0.594192 0.594192 0.538106
1127 2 0.622279 0.594187 0.538106
1135 1 0.726234 0.46215 0.538106
1136 2 0.754321 0.462145 0.538106
1137 2 0.719197 0.489341 0.538106
1128 2 0.587155 0.621383 0.538106
1129 1 0.594192 0.858277 0.538106
1131 2 0.587155 0.885468 0.538106
1130 2 0.622279 0.858272 0.538106
1 3 0.0416667 0.0416667 0.864158
2 4 0.0416667 0.125 0.864158
3 4 0.125 0.0416667 0.864158
4 3 0.125 0.125 0.864158
169 3 0.208333 0.0416667 0.864158
170 4 0.208333 0.125 0.864158
171 4 0.291667 0.0416667 0.864158
172 3 0.291667 0.125 0.864158
337 3 0.375 0.0416667 0.864158
338 4 0.375 0.125 0.864158
339 4 0.458333 0.0416667 0.864158
340 3 0.458333 0.125 0.864158
505 3 0.541667 0.0416667 0.864158
506 4 0.541667 0.125 0.864158
507 4 0.625 0.0416667 0.864158
508 3 0.625 0.125 0.864158
673 3 0.708333 0.0416667 0.864158
674 4 0.708333 0.125 0.864158
675 4 0.791667 0.0416667 0.864158
676 3 0.791667 0.125 0.864158
841 3 0.875 0.0416667 0.864158
842 4 0.875 0.125 0.864158
843 4 0.958333 0.0416667 0.864158
844 3 0.958333 0.125 0.864158
29 3 0.0416667 0.208333 0.864158
30 4 0.0416667 0.291667 0.864158
31 4 0.125 0.208333 0.864158
32 3 0.125 0.291667 0.864158
57 3 0.0416667 0.375 0.864158
59 4 0.125 0.375 0.864158
197 3 0.208333 0.208333 0.864158
198 4 0.208333 0.291667 0.864158
199 4 0.291667 0.208333 0.864158
200 3 0.291667 0.291667 0.864158
225 3 0.208333 0.375 0.864158
227 4 0.291667 0.375 0.864158
365 3 0.375 0.208333 0.864158
366 4 0.375 0.291667 0.864158
393 3 0.375 0.375 0.864158
367 4 0.458333 0.208333 0.864158
368 3 0.458333 0.291667 0.864158
395 4 0.458333 0.375 0.864158
533 3 0.541667 0.208333 0.864158
534 4 0.541667 0.291667 0.864158
561 3 0.541667 0.375 0.864158
535 4 0.625 0.208333 0.864158
536 3 0.625 0.291667 0.864158
563 4 0.625 0.375 0.864158
701 3 0.708333 0.208333 0.864158
702 4 0.708333 0.291667 0.864158
703 4 0.791667 0.208333 0.864158
704 3 0.791667 0.291667 0.864158
729 3 0.708333 0.375 0.864158
731 4 0.791667 0.375 0.864158
869 3 0.875 0.208333 0.864158
870 4 0.875 0.291667 0.864158
871 4 0.958333 0.208333 0.864158
872 3 0.958333 0.291667 0.864158
897 3 0.875 0.375 0.864158
899 4 0.958333 0.375 0.864158
58 4 0.0416667 0.458333 0.864158
60 3 0.125 0.458333 0.864158
85 3 0.0416667 0.541667 0.864158
87 4 0.125 0.541667 0.864158
226 4 0.208333 0.458333 0.864158
228 3 0.291667 0.458333 0.864158
253 3 0.208333 0.541667 0.864158
255 4 0.291667 0.541667 0.864158
394 4 0.375 0.458333 0.864158
421 3 0.375 0.541667 0.864158
396 3 0.458333 0.458333 0.864158
423 4 0.458333 0.541667 0.864158
562 4 0.541667 0.458333 0.864158
589 3 0.541667 0.541667 0.864158
564 3 0.625 0.458333 0.864158
591 4 0.625 0.541667 0.864158
730 4 0.708333 0.458333 0.864158
732 3 0.791667 0.458333 0.864158
757 3 0.708333 0.541667 0.864158
759 4 0.791667 0.541667 0.864158
898 4 0.875 0.458333 0.864158
900 3 0.958333 0.458333 0.864158
925 3 0.875 0.541667 0.864158
927 4 0.958333 0.541667 0.864158
86 4 0.0416667 0.625 0.864158
88 3 0.125 0.625 0.864158
113 3 0.0416667 0.708333 0.864158
114 4 0.0416667 0.791667 0.864158
115 4 0.125 0.708333 0.864158
116 3 0.125 0.791667 0.864158
254 4 0.208333 0.625 0.864158
256 3 0.291667 0.625 0.864158
281 3 0.208333 0.708333 0.864158
282 4 0.208333 0.791667 0.864158
283 4 0.291667 0.708333 0.864158
284 3 0.291667 0.791667 0.864158
422 4 0.375 0.625 0.864158
449 3 0.375 0.708333 0.864158
450 4 0.375 0.791667 0.864158
424 3 0.458333 0.625 0.864158
451 4 0.458333 0.708333 0.864158
452 3 0.458333 0.791667 0.864158
590 4 0.541667 0.625 0.864158
617 3 0.541667 0.708333 0.864158
618 4 0.541667 0.791667 0.864158
592 3 0.625 0.625 0.864158
619 4 0.625 0.708333 0.864158
620 3 0.625 0.791667 0.864158
758 4 0.708333 0.625 0.864158
760 3 0.791667 0.625 0.864158
785 3 0.708333 0.708333 0.864158
786 4 0.708333 0.791667 0.864158
787 4 0.791667 0.708333 0.864158
788 3 0.791667 0.791667 0.864158
926 4 0.875 0.625 0.864158
928 3 0.958333 0.625 0.864158
953 3 0.875 0.708333 0.864158
954 4 0.875 0.791667 0.864158
955 4 0.958333 0.708333 0.864158
956 3 0.958333 0.791667 0.864158
141 3 0.0416667 0.875 0.864158
142 4 0.0416667 0.958333 0.864158
143 4 0.125 0.875 0.864158
144 3 0.125 0.958333 0.864158
309 3 0.208333 0.875 0.864158
310 4 0.208333 0.958333 0.864158
311 4 0.291667 0.875 0.864158
312 3 0.291667 0.958333 0.864158
477 3 0.375 0.875 0.864158
478 4 0.375 0.958333 0.864158
479 4 0.458333 0.875 0.864158
480 3 0.458333 0.958333 0.864158
645 3 0.541667 0.875 0.864158
646 4 0.541667 0.958333 0.864158
647 4 0.625 0.875 0.864158
648 3 0.625 0.958333 0.864158
813 3 0.708333 0.875 0.864158
814 4 0.708333 0.958333 0.864158
815 4 0.791667 0.875 0.864158
816 3 0.791667 0.958333 0.864158
981 3 0.875 0.875 0.864158
982 4 0.875 0.958333 0.864158
983 4 0.958333 0.875 0.864158
984 3 0.958333 0.958333 0.864158
5 4 0.0416667 0.0416667 0.909439
6 3 0.0416667 0.125 0.909439
7 3 0.125 0.0416667 0.909439
8 4 0.125 0.125 0.909439
9 3 0.0416667 0.0416667 0.954719
10 4 0.0416667 0.125 0.954719
11 4 0.125 0.0416667 0.954719
12 3 0.125 0.125 0.954719
173 4 0.208333 0.0416667 0.909439
174 3 0.208333 0.125 0.909439
175 3 0.291667 0.0416667 0.909439
176 4 0.291667 0.125 0.909439
177 3 0.208333 0.0416667 0.954719
178 4 0.208333 0.125 0.954719
179 4 0.291667 0.0416667 0.954719
180 3 0.291667 0.125 0.954719
341 4 0.375 0.0416667 0.909439
342 3 0.375 0.125 0.909439
345 3 0.375 0.0416667 0.954719
346 4 0.375 0.125 0.954719
343 3 0.458333 0.0416667 0.909439
344 4 0.458333 0.125 0.909439
347 4 0.458333 0.0416667 0.954719
348 3 0.458333 0.125 0.954719
509 4 0.541667 0.0416667 0.909439
510 3 0.541667 0.125 0.909439
513 3 0.541667 0.0416667 0.954719
514 4 0.541667 0.125 0.954719
511 3 0.625 0.0416667 0.909439
512 4 0.625 0.125 0.909439
515 4 0.625 0.0416667 0.954719
516 3 0.625 0.125 0.954719
677 4 0.708333 0.0416667 0.909439
678 3 0.708333 0.125 0.909439
679 3 0.791667 0.0416667 0.909439
680 4 0.791667 0.125 0.909439
681 3 0.708333 0.0416667 0.954719
682 4 0.708333 0.125 0.954719
683 4 0.791667 0.0416667 0.954719
684 3 0.791667 0.125 0.954719
845 4 0.875 0.0416667 0.909439
846 3 0.875 0.125 0.909439
847 3 0.958333 0.0416667 0.909439
848 4 0.958333 0.125 0.909439
849 3 0.875 0.0416667 0.954719
850 4 0.875 0.125 0.954719
851 4 0.958333 0.0416667 0.954719
852 3 0.958333 0.125 0.954719
33 4 0.0416667 0.208333 0.909439
34 3 0.0416667 0.291667 0.909439
35 3 0.125 0.208333 0.909439
36 4 0.125 0.291667 0.909439
37 3 0.0416667 0.208333 0.954719
38 4 0.0416667 0.291667 0.954719
39 4 0.125 0.208333 0.954719
40 3 0.125 0.291667 0.954719
61 4 0.0416667 0.375 0.909439
63 3 0.125 0.375 0.909439
65 3 0.0416667 0.375 0.954719
67 4 0.125 0.375 0.954719
201 4 0.208333 0.208333 0.909439
202 3 0.208333 0.291667 0.909439
203 3 0.291667 0.208333 0.909439
204 4 0.291667 0.291667 0.909439
205 3 0.208333 0.208333 0.954719
206 4 0.208333 0.291667 0.954719
207 4 0.291667 0.208333 0.954719
208 3 0.291667 0.291667 0.954719
229 4 0.208333 0.375 0.909439
231 3 0.291667 0.375 0.909439
233 3 0.208333 0.375 0.954719
235 4 0.291667 0.375 0.954719
369 4 0.375 0.208333 0.909439
370 3 0.375 0.291667 0.909439
373 3 0.375 0.208333 0.954719
374 4 0.375 0.291667 0.954719
397 4 0.375 0.375 0.909439
401 3 0.375 0.375 0.954719
371 3 0.458333 0.208333 0.909439
372 4 0.458333 0.291667 0.909439
375 4 0.458333 0.208333 0.954719
376 3 0.458333 0.291667 0.954719
399 3 0.458333 0.375 0.909439
403 4 0.458333 0.375 0.954719
537 4 0.541667 0.208333 0.909439
538 3 0.541667 0.291667 0.909439
541 3 0.541667 0.208333 0.954719
542 4 0.541667 0.291667 0.954719
565 4 0.541667 0.375 0.909439
569 3 0.541667 0.375 0.954719
539 3 0.625 0.208333 0.909439
540 4 0.625 0.291667 0.909439
543 4 0.625 0.208333 0.954719
544 3 0.625 0.291667 0.954719
567 3 0.625 0.375 0.909439
571 4 0.625 0.375 0.954719
705 4 0.708333 0.208333 0.909439
706 3 0.708333 0.291667 0.909439
707 3 0.791667 0.208333 0.909439
708 4 0.791667 0.291667 0.909439
709 3 0.708333 0.208333 0.954719
710 4 0.708333 0.291667 0.954719
711 4 0.791667 0.208333 0.954719
712 3 0.791667 0.291667 0.954719
733 4 0.708333 0.375 0.909439
735 3 0.791667 0.375 0.909439
737 3 0.708333 0.375 0.954719
739 4 0.791667 0.375 0.954719
873 4 0.875 0.208333 0.909439
874 3 0.875 0.291667 0.909439
875 3 0.958333 0.208333 0.909439
876 4 0.958333 0.291667 0.909439
877 3 0.875 0.208333 0.954719
878 4 0.875 0.291667 0.954719
879 4 0.958333 0.208333 0.954719
880 3 0.958333 0.291667 0.954719
901 4 0.875 0.375 0.909439
903 3 0.958333 0.375 0.909439
905 3 0.875 0.375 0.954719