LAMMPS data file via write_data, version 29 Aug 2024, timestep = 105000, units = real

9801 atoms
13 atom types
9255 bonds
9 bond types
17026 angles
12 angle types
23562 dihedrals
4 dihedral types
0 impropers
1 improper types

-29.23165 29.23165 xlo xhi
-27.39825 27.39825 ylo yhi
-5 70 zlo zhi

Masses

1 12.011
2 1.008
3 12.011
4 15.9994
5 1.008
6 15.9994
7 1.008
8 15.9994
9 1.008
10 15.9994
11 15.9994
12 1.008
13 12.011

Pair Coeffs # lj/cut/tip4p/long

1 0.0663016 3.58118
2 0.0282937 2.37341
3 0.0663016 3.58118
4 0.1852 3.1589
5 0 1
6 0.01195 3.81
7 0 1
8 0.1912 3.1
9 0 1
10 0.412295 2.62585
11 0.203061 2.95484
12 0 0
13 0.245018 2.81144

Bond Coeffs # harmonic

1 1109.29 1.12
2 299.844 1.52
3 203.155 1.51
4 0 0.9572
5 442.161 0.972
6 478.011 0.984
7 500.418 1.25
8 399.792 1.43
9 442.161 0.972

Angle Coeffs # harmonic

1 30.1731 109.5
2 47.635 109.6
3 55.1139 111
4 47.5019 108.53
5 54.9931 110.3
6 180.46 109
7 298.152 107
8 0 104.52
9 47.694 109.5
10 47.694 109.5
11 60.166 126
12 286.382 113

Dihedral Coeffs # harmonic

1 1.41491 1 3
2 0 1 1
3 1.69933 -1 2
4 0 1 1

Improper Coeffs # harmonic

1 20.0075 0

Atoms # full

6782 122 2 0.077 -25.26842474493451 -24.29948227495518 0.44458058217704743 1 1 0
6784 122 1 -0.157 -25.027355944319176 -22.740083760383957 1.7836925718171486 1 1 0
6779 122 2 0.07199999999999999 -22.9133368975305 -23.797650780796502 -0.016870793170273325 1 1 0
6610 119 3 -0.211 -28.69605002611125 -25.51835302242121 0.3637724 1 1 0
6722 121 3 -0.211 -29.008431026111253 -20.352657022421212 0.3140936 1 1 0
6778 122 3 -0.211 -23.605065026111255 -22.98006402242121 -0.294034 1 1 0
6783 122 2 0.077 -25.706152413763434 -22.760820057166818 -0.3539168235292464 1 1 0
6780 122 2 0.07199999999999999 -23.58692369973626 -23.06236196412485 -1.4223252351571236 1 1 0
6781 122 1 -0.158 -24.989936708034417 -23.24197318368667 0.3333399624473326 1 1 0
6777 122 2 0.07199999999999999 -23.150337658035948 -22.00286022400061 0.11366821600753099 1 1 0
116 3 2 0.07199999999999999 -19.937622187533336 -25.378018976126757 -0.6879781374883678 0 1 0
115 3 2 0.07199999999999999 -21.66572536121477 -25.92244541670774 -0.3273401560154079 0 1 0
114 3 3 -0.211 -20.659974026111257 -25.85439402242121 0.054556847 0 1 0
117 3 1 -0.158 -20.7618621405533 -24.93668856920883 1.2425854482099938 0 1 0
113 3 2 0.07199999999999999 -20.154389215063862 -26.836111565703757 0.32852161792209195 0 1 0
226 5 3 -0.211 -20.731632026111257 -20.669519022421206 0.11861706 0 1 0
229 5 1 -0.158 -20.73741148913355 -20.15619075444706 1.5674283946292187 0 1 0
225 5 2 0.07199999999999999 -21.6872137015064 -20.426230555539526 -0.46168339455578705 0 1 0
228 5 2 0.07199999999999999 -20.62372715304737 -21.783889644329403 0.2004589318127207 0 1 0
227 5 2 0.07199999999999999 -19.899195969322452 -20.329943891710403 -0.5611345194022999 0 1 0
6786 122 2 0.078 -24.97359178757646 -21.618632481704605 1.7853954808100316 1 1 0
230 5 2 0.077 -20.721045012790544 -19.076127330241796 1.6062531402309763 0 1 0
121 3 2 0.078 -22.836449864745926 -25.269984860506234 1.5473025637696525 0 1 0
118 3 2 0.077 -20.952237769079648 -23.873945958137117 0.9642844142630714 0 1 0
6726 121 2 0.077 -28.107909892026417 -20.78511420096292 2.190326779035156 1 1 0
233 5 2 0.078 -22.911785715490208 -20.437656803122746 1.8833431889740175 0 1 0
6894 124 2 0.077 -25.60389012100632 -18.974157513520705 0.4375602613088405 1 1 0
6724 121 2 0.07199999999999999 -28.22952894128767 -20.910703365914706 -0.2998712511042376 1 1 0
6891 124 2 0.07199999999999999 -23.55725828297909 -18.41441842825565 -1.2415508038515575 1 1 0
120 3 1 -0.157 -21.87648337722149 -25.439795255541895 2.1145472092789923 0 1 0
6788 122 2 0.078 -27.166404346727646 -22.782120310102194 1.9552856618232586 1 1 0
6614 119 2 0.077 -27.886973381781512 -25.80339074345078 2.288044377389056 1 1 0
232 5 1 -0.157 -21.948070470796008 -20.72332506432301 2.3265871565050724 0 1 0
6611 119 2 0.07199999999999999 -27.79406176161581 -26.10554961131412 -0.016387768440625058 1 1 0
6665 120 2 0.07199999999999999 -23.95868297854823 -26.994025867000854 -0.6220782397743901 1 1 0
6893 124 1 -0.158 -25.004817351565364 -18.032446939713417 0.3369425286734431 1 1 0
231 5 2 0.077 -19.825226174455597 -20.52001373124725 2.085131602165018 0 1 0
6674 120 2 0.078 -24.57387683879048 -27.008407620914745 1.9511125425382068 1 1 0
6613 119 1 -0.158 -28.88477004547669 -26.02311348982658 1.8207551834102007 1 1 0
6609 119 2 0.07199999999999999 -28.53571881873193 -24.45972240887826 0.21779078199014665 1 1 0
119 3 2 0.077 -19.819461914753205 -24.993976617909375 1.7565172696771894 0 1 0
6785 122 2 0.078 -24.101953625815742 -23.1065285100106 2.331262301901963 1 1 0
234 5 2 0.078 -21.919331186634174 -21.86144855387139 2.3454739034337884 0 1 0
122 3 2 0.078 -21.74425471765979 -26.52775263168079 2.18867636469807 0 1 0
1736 31 2 0.07199999999999999 -13.505889363404012 -27.193547470011627 19.228311599397774 0 1 0
6889 124 2 0.07199999999999999 -22.857151890993862 -18.84304782070475 0.3731772736671937 1 1 0
174 4 2 0.077 -17.237472720306705 -27.096542901532576 0.12668581117045363 0 1 0
285 6 1 -0.158 -16.552851703689004 -22.859124434977677 0.29689844280987704 0 1 0
282 6 3 -0.211 -15.207229026111255 -23.186706022421205 -0.3302393 0 1 0
288 6 1 -0.157 -16.479468746506235 -23.18976183364625 1.7685503340058644 0 1 0
286 6 2 0.077 -17.28087806732509 -23.532117059391346 -0.1405488541930487 0 1 0
287 6 2 0.077 -16.887813470744362 -21.823834750763773 0.11395859033509285 0 1 0
283 6 2 0.07199999999999999 -14.709092127086205 -24.039362186911 0.15925736949835112 0 1 0
284 6 2 0.07199999999999999 -15.443660950627747 -23.561308207735415 -1.391476798120884 0 1 0
281 6 2 0.07199999999999999 -14.414187355264215 -22.388734387801062 -0.3653545884932936 0 1 0
898 17 3 -0.211 -12.122944026111254 -25.388043022421208 0.17140484 0 1 0
900 17 2 0.07199999999999999 -11.512159356708233 -24.791828607022268 -0.5752961639888136 0 1 0
901 17 1 -0.158 -12.043423310888386 -24.819717193150083 1.5793142982209412 0 1 0
899 17 2 0.07199999999999999 -13.163116865494212 -25.311988504704996 -0.2513240852149458 0 1 0
897 17 2 0.07199999999999999 -11.765007257066864 -26.435395484629765 0.15938300762239535 0 1 0
1010 19 3 -0.211 -12.433162026111253 -20.894153022421207 -0.13897419 0 1 0
1011 19 2 0.07199999999999999 -12.627267117295855 -21.99896208940038 -0.10016711339532781 0 1 0
1015 19 2 0.077 -11.266187842120113 -20.606910514797512 1.5775311620935222 0 1 0
1013 19 1 -0.158 -12.291301544404256 -20.298287992513597 1.1812402249971918 0 1 0
1012 19 2 0.07199999999999999 -13.332329400396084 -20.398632202912427 -0.618792227350305 0 1 0
1009 19 2 0.07199999999999999 -11.49083754654223 -20.850660266115323 -0.7690559598725478 0 1 0
1014 19 2 0.077 -12.264563852947418 -19.187277241266663 1.1082374569011066 0 1 0
289 6 2 0.078 -16.35671867878456 -24.29904222808327 1.9659962102203172 0 1 0
1016 19 1 -0.157 -13.372938759192662 -20.87224083335094 2.0786340195997304 0 1 0
293 6 2 0.078 -18.527824415319706 -22.885951744526903 1.7152561418975478 0 1 0
401 8 2 0.078 -16.750984048622414 -19.429088836661855 2.0872712525582844 0 1 0
902 17 2 0.077 -12.333910722951234 -23.76038223321447 1.503330667035969 0 1 0
1017 19 2 0.078 -14.362911970785902 -20.59222656529407 1.6004670091567057 0 1 0
903 17 2 0.077 -10.960550517430324 -24.85940644022215 1.9170819363182026 0 1 0
905 17 2 0.078 -13.789831921737802 -25.998204318425397 2.152092948469655 0 1 0
175 4 2 0.077 -15.728265974747831 -26.519116661896113 0.9141919984753192 0 1 0
395 8 2 0.07199999999999999 -15.026586302388264 -19.21439201270019 -0.17865116165308498 0 1 0
1018 19 2 0.078 -13.325038562776397 -21.980044382464715 2.1705680092653803 0 1 0
1077 20 2 0.078 -10.389215249028744 -22.49984667806468 2.0435038546416266 0 1 0
400 8 1 -0.157 -16.57945252125925 -18.305972908109144 2.000004118695461 0 1 0
402 8 2 0.078 -15.579260872596576 -18.109966089559663 2.4291333067656438 0 1 0
393 8 2 0.07199999999999999 -14.412134883456016 -17.516404455680984 -0.08473415293386898 0 1 0
290 6 2 0.078 -15.615737605842355 -22.62432712836898 2.2837253034522407 0 1 0
906 17 2 0.078 -12.229470440758128 -26.613139406439686 2.7716561416269747 0 1 0
904 17 1 -0.157 -12.82035988446146 -25.658756549503444 2.5919631504852743 0 1 0
291 6 1 -0.156 -17.688973839941426 -22.62082243089091 2.4203976997270824 0 1 0
292 6 2 0.078 -17.565174685425923 -21.53418932298347 2.4005205056960923 0 1 0
6895 124 2 0.077 -25.678354247187468 -17.256061012426468 -0.10209874640675375 1 1 0
6900 124 2 0.078 -27.262791846407882 -17.351923307047755 2.0072337163395697 1 1 0
6896 124 1 -0.157 -25.04445987378901 -17.488973313685374 1.7812074753504603 1 1 0
6892 124 2 0.07199999999999999 -23.068524886969538 -17.128226306774216 0.013998751759661622 1 1 0
7030 126 2 0.079 -29.17064162544834 -14.267744780602289 9.186453114382529 1 1 0
6834 123 3 -0.211 -28.74928002611125 -15.422948022421211 0.20806408 1 1 0
6890 124 3 -0.211 -23.573743026111252 -18.140139522421208 -0.14091587 1 1 0
7006 126 2 0.077 -24.236983204469674 -14.865806637671042 0.3624380051850502 1 1 0
7002 126 3 -0.211 -23.378045026111252 -13.204842522421211 -0.43225193 1 1 0
7008 126 1 -0.157 -24.81836519506513 -13.186010967460241 1.557353859946171 1 1 0
7004 126 2 0.07199999999999999 -23.073909114309238 -13.647574295562803 -1.4001822523981695 1 1 0
7003 126 2 0.07199999999999999 -22.51521802957908 -13.239429051650985 0.23754473250775401 1 1 0
7005 126 1 -0.158 -24.58778303260756 -13.846554286997609 0.1867396949710028 1 1 0
7007 126 2 0.077 -25.48271070133043 -13.907292532223481 -0.5089523991631216 1 1 0
7001 126 2 0.07199999999999999 -23.57159763941859 -12.130458168524557 -0.5431140655243113 1 1 0
6946 125 3 -0.211 -28.68694002611125 -10.449290222421213 0.35140133 1 1 0
449 9 2 0.07199999999999999 -21.93761236717829 -10.884058742932158 0.17020073226774604 0 1 0
452 9 2 0.07199999999999999 -20.157029441485772 -11.362695658778522 0.1727819933588732 0 1 0
451 9 2 0.07199999999999999 -20.541182927022305 -9.73949895221475 -0.41318664720775106 0 1 0
338 7 3 -0.211 -20.530094026111257 -15.64838502242121 0.2057333 0 1 0
341 7 1 -0.158 -20.248106463334242 -15.322058172547065 1.6713547987880921 0 1 0
453 9 1 -0.158 -20.641641509048664 -10.02206314975653 1.6783878015000222 0 1 0
450 9 3 -0.211 -20.876260026111254 -10.513361922421213 0.2977705 0 1 0
7010 126 2 0.078 -24.85895725424109 -12.05615028875224 1.4328398145293104 1 1 0
342 7 2 0.077 -20.114941719006197 -14.227690731984474 1.670654634748084 0 1 0
345 7 2 0.078 -22.413195637184604 -15.595636079709497 2.1317999776506604 0 1 0
7012 126 2 0.078 -26.93267677360817 -13.622211917004803 1.7136911288884393 1 1 0
340 7 2 0.07199999999999999 -21.251995632792482 -15.020066451073703 -0.3524307625214951 0 1 0
6898 124 2 0.078 -24.900372224731598 -16.423579972259493 1.7509905392130096 1 1 0
339 7 2 0.07199999999999999 -20.916112608563086 -16.69838155344506 0.2186884906520514 0 1 0
457 9 2 0.078 -22.48613718332582 -10.86076240061046 2.2894313389551577 0 1 0
7009 126 2 0.078 -24.019031616281726 -13.434059821954941 2.309503688242847 1 1 0
337 7 2 0.07199999999999999 -19.581831961742754 -15.5354419619375 -0.34696370412164984 0 1 0
6833 123 2 0.07199999999999999 -27.773614558402205 -15.52868549095495 0.7355973192311704 1 1 0
6945 125 2 0.07199999999999999 -27.59696571569325 -10.36792732840672 0.4621599759596849 1 1 0
343 7 2 0.077 -19.29229980838333 -15.77401833785847 2.00806808951702 0 1 0
455 9 2 0.077 -19.50715695393181 -10.009612784591859 1.8154074572592465 0 1 0
6947 125 2 0.07199999999999999 -28.914065171894936 -10.712558692757105 -0.686795799117944 1 1 0
346 7 2 0.078 -21.35170038195395 -16.878351818129126 2.681439506173372 0 1 0
344 7 1 -0.157 -21.407122367516344 -15.77643304216086 2.585104988507422 0 1 0
1287 23 2 0.07199999999999999 -22.370702802607852 -10.39698817819111 19.078784561499777 0 1 0
6835 123 2 0.07199999999999999 -28.805671199837214 -15.95190055947225 -0.7885551140488044 1 1 0
270 5 2 0.078 -28.661634914212225 -21.591582111672956 15.821028549354395 0 1 0
405 8 2 0.078 -18.619391164814605 -17.689691755073028 2.4007495141962933 0 1 0
398 8 2 0.077 -17.50634505255302 -18.408618201612896 0.1777578199970793 0 1 0
396 8 2 0.07199999999999999 -15.547976887390107 -18.106501725691558 -1.4481562280458224 0 1 0
397 8 1 -0.158 -16.655905704471852 -17.861149611392285 0.5176711658710057 0 1 0
399 8 2 0.077 -16.874430839797096 -16.762721531685838 0.46203199376984216 0 1 0
394 8 3 -0.211 -15.327084026111256 -18.142375022421206 -0.31948566 0 1 0
509 10 1 -0.158 -16.633956728410745 -12.763402038054906 0.7675889588856775 0 1 0
512 10 1 -0.157 -16.748071052911445 -13.611937630104352 2.0200011170285674 0 1 0
506 10 3 -0.211 -15.381630026111251 -13.13567062242121 -0.13204288 0 1 0
510 10 2 0.077 -17.494773363364597 -12.959423595032543 0.12532649748607838 0 1 0
511 10 2 0.077 -16.58530978009309 -11.631447419422985 1.0054359878613204 0 1 0
505 10 2 0.07199999999999999 -15.285570291389536 -14.24910921323515 -0.17317571158048467 0 1 0
508 10 2 0.07199999999999999 -14.451620633106707 -12.67465741870385 0.3010867991891382 0 1 0
507 10 2 0.07199999999999999 -15.56932804307625 -12.738552839717274 -1.1387691858148634 0 1 0
1123 21 2 0.07199999999999999 -13.261278852805606 -15.772300052143866 -0.35538976684643364 0 1 0
1125 21 1 -0.158 -12.489737443544865 -15.184453021262941 1.6040166562999671 0 1 0
1124 21 2 0.07199999999999999 -11.438625814808892 -15.217178606887355 -0.30673370793974475 0 1 0
1121 21 2 0.07199999999999999 -12.004233625149574 -16.809028652355074 0.4549136356258301 0 1 0
1122 21 3 -0.211 -12.29869002611125 -15.745120022421213 0.23921871 0 1 0
1233 23 2 0.07199999999999999 -11.740613698128971 -9.741953128867507 -0.058042136844284956 0 1 0
1237 23 1 -0.158 -11.294977406251451 -11.287795570555284 1.4237472357257694 0 1 0
1235 23 2 0.07199999999999999 -11.975367536870518 -11.52798088520993 -0.5524440396076109 0 1 0
1236 23 2 0.07199999999999999 -13.204240086933416 -10.84628465794308 0.6471018982483656 0 1 0
1234 23 3 -0.211 -12.150787026111251 -10.769822022421211 0.27859783 0 1 0
1127 21 2 0.077 -11.51797786696061 -15.199904348276522 2.140447982088448 0 1 0
1126 21 2 0.077 -12.77379350865385 -14.109580110540602 1.5025843217969075 0 1 0
1239 23 2 0.077 -11.470010424908766 -12.397683852608411 1.5488532276873328 0 1 0
513 10 2 0.078 -17.0804318179689 -14.664786189984746 1.7962390220088722 0 1 0
1129 21 2 0.078 -14.52370762896871 -15.864248493808471 1.9337894154170598 0 1 0
1128 21 1 -0.157 -13.514683595367412 -15.874834019384892 2.4387588891255323 0 1 0
1238 23 2 0.077 -10.19656671659526 -11.127173225820828 1.2830757087961835 0 1 0
623 12 2 0.077 -15.766960058617387 -9.53035268863206 1.382352023961194 0 1 0
1130 21 2 0.078 -13.252223009883133 -16.970778208572206 2.537191556849235 0 1 0
514 10 2 0.078 -15.772353775198324 -13.644451234413646 2.6050631969779303 0 1 0
517 10 2 0.078 -18.79819780590057 -12.922499739967773 2.6328440081182416 0 1 0
403 8 1 -0.156 -17.655746866034665 -17.590586251303215 2.897562467447323 0 1 0
224 4 2 0.07199999999999999 -26.031411354201776 -27.018093365756314 18.748574161552547 0 1 0
134 3 2 0.078 -23.740394645304615 -26.611135246008935 6.937030754646641 0 1 0
156 3 1 -0.156 -29.163861614208553 -25.639040096200027 15.164202553265905 0 1 0
6789 122 2 0.078 -26.40644362475349 -24.33295660287511 2.3885339292177754 1 1 0
6901 124 2 0.078 -26.581940154411534 -19.0420737067815 2.2269148507196306 1 1 0
6787 122 1 -0.156 -26.287792963074924 -23.229909452213764 2.4999874789880856 1 1 0
6686 120 2 0.078 -27.46735316379746 -26.765690922551364 6.143500799773695 1 1 0
6799 122 1 -0.156 -28.813085414105338 -23.340785560475798 6.80567400383262 1 1 0
136 3 2 0.078 -23.61813847863863 -24.65238211086885 8.630968160978576 0 1 0
236 5 2 0.078 -20.953952723804733 -20.129856986541988 4.229736691208612 0 1 0
237 5 2 0.078 -22.23487541813486 -18.944648040492197 3.7551062233707744 0 1 0
131 3 2 0.08 -23.427656657256154 -23.838817945397686 5.746756678091273 0 1 0
6791 122 2 0.078 -26.085376765237275 -21.638057141569735 4.017193123635403 1 1 0
6792 122 2 0.078 -25.474433730050336 -23.243105455424768 4.565490523418339 1 1 0
6790 122 1 -0.158 -26.268886384480286 -22.76059613129996 3.959795968304101 1 1 0
128 3 2 0.078 -23.987576915149454 -25.47748141141712 3.86718997805144 0 1 0
129 3 1 -0.158 -23.045706332165974 -24.881277253388394 5.7999978103378105 0 1 0
135 3 1 -0.156 -24.45161912860415 -24.797428371473316 7.9132259380106165 0 1 0
132 3 1 -0.156 -24.10835250262301 -25.611939953853433 6.677189048844454 0 1 0
138 3 1 -0.158 -25.549390469332558 -25.56518595493328 8.59926786833427 0 1 0
6797 122 2 0.078 -26.71412502202756 -22.84613510145079 6.633082201536268 1 1 0
6796 122 1 -0.156 -27.660301422519964 -22.660918105452286 6.068358452371749 1 1 0
6795 122 2 0.08 -27.605381747608305 -24.253683971469815 4.522005585388429 1 1 0
6793 122 1 -0.158 -27.596935796791225 -23.14635144088619 4.599487631465049 1 1 0
241 5 1 -0.158 -23.24284136981761 -20.147684614193246 5.982568608648879 0 1 0
245 5 2 0.078 -25.33491490087041 -20.665254175881866 5.9310676266444045 0 1 0
247 5 1 -0.156 -24.671998411230774 -20.042253151541964 7.910372204681199 0 1 0
244 5 1 -0.156 -24.432387552741968 -20.767169014647205 6.595258729620337 0 1 0
250 5 1 -0.158 -25.91913185578077 -20.568051579822754 8.621944399005239 0 1 0
248 5 2 0.078 -23.768726684410222 -20.201053663659597 8.562436261451289 0 1 0
6794 122 2 0.08 -28.519513712486983 -22.763644903097966 4.0931265060852935 1 1 0
246 5 2 0.078 -24.24816768900544 -21.862510627474393 6.77854456241887 0 1 0
238 5 1 -0.158 -23.067812939566192 -20.7614240834131 4.5946954113462555 0 1 0
240 5 2 0.078 -23.931758135499944 -20.663297728856325 3.9030936934449754 0 1 0
239 5 2 0.078 -22.84682003218118 -21.826030143606328 4.661373807025207 0 1 0
123 3 1 -0.156 -22.018586514295517 -24.900260296218804 3.532774222695292 0 1 0
242 5 2 0.08 -22.36879396063662 -20.28896865535634 6.64974825424604 0 1 0
126 3 1 -0.158 -23.03072246288481 -25.603402188572662 4.4452205501909345 0 1 0
235 5 1 -0.156 -21.98600989867851 -20.03135041424544 3.7336693224420787 0 1 0
243 5 2 0.08 -23.37456456779381 -19.078656829714845 5.813148745857903 0 1 0
249 5 2 0.078 -24.699084497957212 -18.958747236681187 7.692701265255002 0 1 0
252 5 2 0.079 -25.902086864209686 -21.675241098411412 8.821777932208468 0 1 0
137 3 2 0.078 -24.842946921697013 -23.81603326249248 7.6130419152341045 0 1 0
125 3 2 0.078 -22.265239252096396 -23.81830578644109 3.5530815271129015 0 1 0
251 5 2 0.079 -26.77902056326258 -20.4404672734303 7.919820597558851 0 1 0
309 6 1 -0.158 -21.555088410966462 -22.31776731872545 9.104097468391673 0 1 0
310 6 2 0.079 -22.453207048821234 -22.59549113002041 8.532495114034578 0 1 0
305 6 2 0.078 -21.356278193354257 -22.59390886945124 6.38724737366056 0 1 0
124 3 2 0.078 -20.96797544571161 -24.990773066860715 3.974930587336224 0 1 0
130 3 2 0.08 -22.049697284184173 -24.802580834639524 6.294312232018944 0 1 0
139 3 2 0.079 -26.497434723844155 -25.826921775167335 8.021601128203068 0 1 0
133 3 2 0.078 -25.056402044765182 -25.764057125315535 6.048666392198232 0 1 0
6798 122 2 0.078 -27.786547194775316 -21.49429718638587 5.995423173202069 1 1 0
306 6 1 -0.158 -20.408790570126122 -22.83177884480223 8.317810068613756 0 1 0
303 6 1 -0.156 -20.352267860040506 -22.38257023315471 6.842308880418374 0 1 0
6803 122 2 0.079 -28.050948601246773 -23.13458704998682 8.846283289450602 1 1 0
311 6 2 0.079 -21.549715287428146 -21.198013738777053 9.162206000878797 0 1 0
307 6 2 0.079 -20.399153193629687 -23.93183134715876 8.300820577902055 0 1 0
6907 124 2 0.08 -28.170374886506483 -18.83530125021043 4.482375342415695 1 1 0
127 3 2 0.078 -22.85638606179037 -26.70401094187363 4.624289241898524 0 1 0
6802 122 1 -0.158 -28.980517678933087 -22.899948907065653 8.258123006860483 1 1 0
199 4 2 0.079 -21.676591536957055 -26.031419703659605 8.814097827718273 0 1 0
6801 122 2 0.078 -28.581170593903096 -24.43735147810587 6.777340522657116 1 1 0
299 6 2 0.08 -20.03950910924369 -22.667765416601036 4.1587087416932285 0 1 0
419 8 2 0.079 -20.80294260648047 -19.43389641189244 8.107296412166004 0 1 0
192 4 2 0.078 -20.080601591945996 -26.045486961287892 6.960170103557738 0 1 0
140 3 2 0.079 -25.102055429455895 -26.53790543491743 8.963953029533895 0 1 0
304 6 2 0.078 -20.151794543224373 -21.28978887042313 6.695416757056458 0 1 0
6913 124 2 0.078 -28.926482086095536 -19.18717085231857 6.862390725315037 1 1 0
6679 120 2 0.078 -26.01386139748063 -26.95699152089035 4.005854911983766 1 1 0
418 8 1 -0.158 -20.645634981293245 -18.348630970091754 8.416078656153449 0 1 0
420 8 2 0.079 -19.71521572101243 -18.262347185754066 9.0488161471615 0 1 0
197 4 1 -0.158 -21.571411402688646 -27.165393439888497 8.926090076256845 0 1 0
2067 37 2 0.077 -12.74308379491538 -9.509915177081318 18.10606565043802 0 1 0
314 6 2 0.078 -22.00417275597603 -24.18692453076776 10.210824732260274 0 1 0
203 4 1 -0.156 -22.826649161350616 -27.187565694906095 11.257818397944625 0 1 0
308 6 2 0.079 -19.437924553410937 -22.49405919629702 8.779128130694287 0 1 0
301 6 2 0.078 -19.472489078978388 -24.20324120220686 5.952012458017215 0 1 0
413 8 2 0.078 -19.148629439673737 -19.138798775282126 6.2579696687816995 0 1 0
180 4 2 0.078 -17.329148928649325 -26.37420533838044 2.8078198829387255 0 1 0
300 6 1 -0.156 -19.197779489968077 -23.102298451897894 6.040749286739123 0 1 0
976 18 2 0.078 -11.666596374499138 -26.445448332435827 7.527799540647986 0 1 0
186 4 2 0.08 -18.454604883280176 -26.104102115983633 4.862413089992901 0 1 0
918 17 2 0.078 -15.305001612142426 -26.412467439616673 7.017525862083038 0 1 0
920 17 2 0.078 -14.92020189560928 -24.786720311448924 8.616677718614854 0 1 0
1089 20 2 0.078 -12.460232310910381 -22.141879252038688 6.41704129097169 0 1 0
1021 19 2 0.078 -13.697054296952384 -19.21984644548855 3.413914379375218 0 1 0
1020 19 2 0.078 -12.503928722814155 -20.405409735809044 4.094022040340333 0 1 0
298 6 2 0.08 -18.90285095429947 -21.461466482139276 4.763555243066977 0 1 0
302 6 2 0.078 -18.186644105954226 -22.99641334896093 6.4575227044715255 0 1 0
295 6 2 0.078 -17.06686298515794 -23.441407648009992 4.438904226217512 0 1 0
297 6 1 -0.158 -19.0834537687797 -22.527027589477786 4.687477923884249 0 1 0
296 6 2 0.078 -18.512009430610107 -24.1901549627578 3.6628903031342404 0 1 0
294 6 1 -0.158 -18.014475969766163 -23.19896647619401 3.848528126725348 0 1 0
919 17 1 -0.156 -15.910613019978499 -24.728762218773934 8.041534195497613 0 1 0
922 17 1 -0.158 -17.058324609076568 -25.278851697448346 8.853519875581405 0 1 0
1031 19 1 -0.156 -16.12516472191157 -20.086630761105013 7.826915581913747 0 1 0
1034 19 1 -0.158 -17.03619340573239 -20.92637216399323 8.828771439801985 0 1 0
1035 19 2 0.079 -18.068503470695276 -21.011798612352102 8.382886484786184 0 1 0
916 17 1 -0.156 -15.745176575835806 -25.407728852436808 6.716244566792696 0 1 0
1036 19 2 0.079 -16.652966863794354 -21.975986355786954 8.946286081283354 0 1 0
1028 19 1 -0.156 -15.804986688615928 -20.843638621730207 6.521908658099372 0 1 0
1030 19 2 0.078 -15.420221363939573 -21.847782884228103 6.870162833922196 0 1 0
1032 19 2 0.078 -15.156938144491699 -19.849938133499 8.350297967605371 0 1 0
1029 19 2 0.078 -16.716648753599607 -21.04901213416063 5.944935933756244 0 1 0
1023 19 2 0.078 -14.07417767911487 -21.920952797224274 4.650211343738082 0 1 0
1033 19 2 0.078 -16.658244373261027 -19.13179526861763 7.653550042372536 0 1 0
1025 19 1 -0.158 -14.734942322629598 -20.26157387010895 5.649609295397053 0 1 0
1022 19 1 -0.158 -14.541071674873681 -20.966010150076468 4.311217685594948 0 1 0
1026 19 2 0.08 -13.775621886105336 -20.25030108830114 6.165525433486166 0 1 0
913 17 1 -0.158 -14.688349290091287 -24.629049142891972 5.853501204684907 0 1 0
1024 19 2 0.078 -15.43510102933954 -21.24700128002481 3.792499559262258 0 1 0
910 17 1 -0.158 -14.37734599404712 -25.417279029830848 4.606914075682331 0 1 0
1027 19 2 0.08 -14.9575025470473 -19.18346910167118 5.405510890168792 0 1 0
1019 19 1 -0.156 -13.45287276830097 -20.304503412979358 3.4825724260520894 0 1 0
1091 20 2 0.079 -12.157577291616043 -23.98001848714689 8.127725570255453 0 1 0
1087 20 1 -0.156 -11.567652685589662 -22.2348531538833 7.042419418823741 0 1 0
907 17 1 -0.156 -13.198068521869699 -24.8339027358978 3.8380773688498797 0 1 0
1090 20 1 -0.158 -11.881108402350833 -22.94437226797315 8.375015264816124 0 1 0
1092 20 2 0.079 -11.015834812576799 -23.04505178639426 9.108270283520335 0 1 0
912 17 2 0.078 -15.320129890867618 -25.265089267576677 4.015440037718279 0 1 0
1093 20 1 -0.158 -12.941302895244647 -22.23574108818321 9.106275599679318 0 1 0
917 17 2 0.078 -16.71112832276776 -25.5793236390297 6.204226346719803 0 1 0
408 8 2 0.078 -17.938465049266107 -19.102001149148464 4.283685520570679 0 1 0
923 17 2 0.079 -18.041980269725222 -24.962087549226762 8.408491454635108 0 1 0
909 17 2 0.078 -13.46031757508735 -23.79776082105629 3.4270499897292472 0 1 0
915 17 2 0.08 -15.11747305164124 -23.639899117278354 5.541901576691833 0 1 0
921 17 2 0.078 -16.063930274692744 -23.613245801442567 7.782754099251851 0 1 0
1088 20 2 0.078 -11.28634936535989 -21.184675285016436 7.308446158154664 0 1 0
1095 20 2 0.079 -12.526616143022126 -21.203229092900337 9.348239119647374 0 1 0
1094 20 2 0.079 -13.862707616334852 -22.172904183073303 8.49234584169742 0 1 0
914 17 2 0.08 -13.7196791515779 -24.462182694379717 6.451167070865231 0 1 0
908 17 2 0.078 -12.317360635325839 -24.671518957405414 4.4874700472224545 0 1 0
1084 20 1 -0.156 -10.485932577818833 -23.05052174150443 6.357582405383979 0 1 0
1204 22 2 0.079 -12.53323678237914 -19.02507823274405 8.050135896848102 0 1 0
1198 22 2 0.078 -11.493833038665016 -18.91758717411512 6.090445806406225 0 1 0
911 17 2 0.078 -14.20909488401522 -26.488451450471644 4.706918684413456 0 1 0
1081 20 1 -0.158 -10.398601969729391 -22.484271432186482 4.940461011925084 0 1 0
1083 20 2 0.08 -11.446027895228717 -22.628848566048536 4.5423110566583285 0 1 0
924 17 2 0.079 -17.119471402234396 -26.413547788301507 8.883230869370212 0 1 0
1085 20 2 0.078 -10.65729375121314 -24.122577155591394 6.320494896889051 0 1 0
412 8 1 -0.156 -19.201120131886714 -18.036462596505284 6.386817790909102 0 1 0
970 18 2 0.08 -10.182795723212374 -26.52533035436128 5.181621312846645 0 1 0
406 8 1 -0.158 -17.80427553174041 -17.981886437843404 4.302101480663826 0 1 0
414 8 2 0.078 -18.307901832644987 -17.76236675742886 6.994270910313428 0 1 0
1196 22 1 -0.156 -11.53526207515309 -17.7635215325069 6.048171538445405 0 1 0
407 8 2 0.078 -16.919172480389932 -17.734167678139702 4.986325398956028 0 1 0
1197 22 2 0.078 -12.536803922633455 -17.455574207375722 5.596563241449068 0 1 0
1202 22 1 -0.158 -12.49712218349152 -17.897222724140796 8.198595580210261 0 1 0
1203 22 2 0.079 -13.413933598920867 -17.52764678715212 7.71349188179306 0 1 0
983 18 2 0.079 -12.605819063381102 -26.820992885041264 9.868526624576571 0 1 0
1192 22 2 0.078 -11.251622823290482 -18.02333120100578 3.3960435988761724 0 1 0
1082 20 2 0.08 -10.196777725990692 -21.38261734772019 5.030503340868042 0 1 0
1440 26 2 0.08 -14.464125149536287 -9.217757489305821 12.618198803319933 0 1 0
1038 19 2 0.079 -17.36392522098657 -19.136234572053823 9.85379524419783 0 1 0
14277 2038 5 0.5564 -28.824812659427593 -9.920962042911407 27.83341022448263 1 0 0
926 17 2 0.079 -16.96974002208342 -23.73340422260802 10.41186167795535 0 1 0
1037 19 1 -0.158 -17.266343688023344 -20.20929541076621 10.13821872771618 0 1 0
185 4 1 -0.158 -18.81095382777028 -27.182219948984002 4.821150095082677 0 1 0
7011 126 1 -0.156 -26.01001488351386 -13.67927538742031 2.3319334851970335 1 1 0
6899 124 1 -0.156 -26.40575803423505 -17.951070983882346 2.4098504783259957 1 1 0
6905 124 1 -0.158 -27.69876201831004 -17.832069206179582 4.618536004088651 1 1 0
6911 124 1 -0.156 -28.8813732924483 -18.076123064363223 6.850214682457485 1 1 0
6915 124 2 0.079 -27.857119208565855 -17.895136746538306 8.663217124234828 1 1 0
1006 18 2 0.07199999999999999 -18.103685597584594 -27.32348840424823 18.430359808682386 0 1 0
411 8 2 0.08 -19.94286473244329 -17.54217344615702 4.3901454321442195 0 1 0
6897 124 2 0.078 -24.171019285655643 -17.97678479528201 2.3090338918649866 1 1 0
458 9 2 0.078 -21.021965639932194 -11.91311608806453 2.6961560201558914 0 1 0
417 8 2 0.078 -21.25829172851118 -17.882556631320877 6.341330750118419 0 1 0
6906 124 2 0.08 -28.360924212795823 -17.05798871585052 4.144783587979151 1 1 0
6909 124 2 0.078 -26.7779924781043 -18.38849358578544 6.373175998093965 1 1 0
456 9 1 -0.157 -21.419912692340446 -10.852561429876294 2.6425319457494494 0 1 0
7013 126 2 0.078 -25.85735652174394 -14.743648701292843 2.524268975692229 1 1 0
6904 124 2 0.078 -25.664441892908037 -18.47658695249443 4.453088844002932 1 1 0
422 8 2 0.079 -22.793411162568013 -17.927551388245874 8.759152516403633 0 1 0
6908 124 1 -0.156 -27.617459759075903 -17.6722793399606 6.083723399641295 1 1 0
6902 124 1 -0.158 -26.355452847224374 -17.750987491826855 3.907830640215184 1 1 0
6953 125 2 0.078 -28.44736385841766 -10.672130519055562 3.388794267102136 1 1 0
7125 128 2 0.078 -25.43149026357786 -9.98969493319731 2.9837095220095065 1 1 0
472 9 2 0.078 -23.081048758865343 -10.05648108975012 8.719679725685904 0 1 0
6910 124 2 0.078 -27.279755831023973 -16.654680379783475 6.337801078064118 1 1 0
415 8 1 -0.156 -20.464981364768 -17.57183315028834 7.069659022538137 0 1 0
421 8 1 -0.158 -21.834665675403947 -17.754944880693813 9.339529337966521 0 1 0
6903 124 2 0.078 -26.006868823709627 -16.73460803565633 4.155396796960031 1 1 0
349 7 2 0.078 -21.580408764570628 -13.964290365670882 3.81270411234406 0 1 0
7022 126 2 0.078 -27.587157589231904 -11.809183920612714 5.62479230643783 1 1 0
7015 126 2 0.078 -26.649307991111186 -11.841068213426922 3.33054251914521 1 1 0
7016 126 2 0.078 -25.228262875614483 -12.70536180471322 4.057348457161045 1 1 0
7023 126 1 -0.156 -28.552611912744553 -13.364401352512772 6.6633496044965534 1 1 0