31
Atoms. Timestep: 10120
3 43.7091 -54.1247 -25.6695
5 44.7395 -53.6683 -25.5405
5 43.5006 -54.1542 -26.7842
6 42.9183 -53.3079 -25.2021
7 43.015 -52.4528 -25.6365
3 43.9661 -55.8758 -25.2429
5 44.0774 -55.8701 -24.1155
5 42.9565 -56.3382 -25.4848
4 44.7874 -56.7806 -25.6958
3 45.2451 -57.7409 -25.0112
5 44.9103 -57.6672 -23.9276
5 44.7397 -58.6672 -25.4475
3 46.8727 -58.1632 -24.9601
5 47.0566 -58.7707 -25.9058
5 47.4588 -57.1944 -25.0549
4 47.383 -58.8257 -24.0661
3 48.5667 -58.6838 -23.8459
5 49.0582 -59.6749 -24.1229
5 48.9818 -57.8936 -24.5519
3 49.1126 -58.3149 -22.3447
5 48.1738 -58.1177 -21.7282
5 49.6573 -57.3204 -22.4554
4 49.8311 -59.1273 -21.7344
3 50.5743 -58.8222 -20.7218
5 51.1952 -57.9375 -21.0662
5 49.8477 -58.4488 -19.934
3 51.7447 -59.8299 -19.7788
5 51.118 -60.7089 -19.4295
5 52.4535 -60.2274 -20.5706
6 52.4472 -59.5181 -18.8244
7 52.9673 -60.2726 -18.5257
