ITEM: TIMESTEP
10120
ITEM: NUMBER OF ATOMS
31
ITEM: BOX BOUNDS ss ss ss
4.2915300543502234e+01 5.2970287842246215e+01
-6.0711897710638688e+01 -5.2449761318109402e+01
-2.6787246490928165e+01 -1.8522727912392210e+01
ITEM: ATOMS id type xs ys zs
9 4 0.186189 0.475827 0.132067
16 4 0.444328 0.228292 0.329257
10 3 0.231706 0.359594 0.214895
13 3 0.393579 0.30848 0.221079
12 5 0.181443 0.247481 0.162108
11 5 0.19841 0.368516 0.346014
14 5 0.411864 0.234949 0.106658
15 5 0.451869 0.425736 0.209617
17 3 0.562054 0.245469 0.355901
18 5 0.610928 0.125518 0.322386
19 5 0.603333 0.341113 0.27047
1 3 0.0789424 0.797272 0.135242
4 6 0.000298359 0.896141 0.191806
6 3 0.104509 0.585337 0.186868
5 7 0.0099113 0.999637 0.139239
2 5 0.181423 0.852515 0.150853
3 5 0.0582102 0.793707 0.000362998
7 5 0.115573 0.586024 0.323275
8 5 0.00409741 0.529368 0.157596
23 4 0.687795 0.191788 0.61139
27 3 0.878116 0.106752 0.848016
30 6 0.947977 0.144491 0.963495
20 3 0.616343 0.290114 0.537546
24 3 0.761708 0.228715 0.733919
21 5 0.522973 0.313991 0.612143
22 5 0.670514 0.410486 0.524147
26 5 0.689449 0.273913 0.829237
25 5 0.823461 0.335794 0.692238
28 5 0.815785 0.000363102 0.890282
29 5 0.948606 0.0586436 0.752203
31 7 0.999702 0.0531676 0.999637
