ITEM: TIMESTEP
10120
ITEM: NUMBER OF ATOMS
31
ITEM: BOX BOUNDS ss ss ss
7.5272957105765377e+00 1.5296244864385457e+01
7.1248576489651441e+01 7.7279670096645319e+01
-7.8323079813996488e+00 -1.9650542998260507e+00
ITEM: ATOMS id type xs ys zs
11 5 0.483349 0.32681 0.210493
14 5 0.496787 0.745463 0.440452
18 5 0.0935707 0.717321 0.186425
19 5 0.198675 0.610117 0.439875
21 5 0.250679 0.260866 0.0559026
22 5 0.0320443 0.360482 0.0321068
26 5 0.22281 0.000497422 0.470995
25 5 0.000386153 0.0519521 0.548052
28 5 0.0792675 0.441151 0.733672
29 5 0.301572 0.416135 0.641339
31 7 0.265617 0.424051 0.999489
13 3 0.476976 0.71061 0.251931
17 3 0.206449 0.612529 0.247069
20 3 0.139736 0.329504 0.159827
24 3 0.121041 0.134873 0.479426
16 4 0.32499 0.756236 0.204789
23 4 0.0758621 0.164058 0.268022
27 3 0.191212 0.32126 0.721593
30 6 0.236766 0.287123 0.923497
5 7 0.973027 0.999503 0.658843
2 5 0.771097 0.885499 0.4462
3 5 0.820177 0.710755 0.690641
7 5 0.897955 0.559514 0.169537
8 5 0.927438 0.389738 0.422909
12 5 0.615647 0.466959 0.000511312
15 5 0.55147 0.845605 0.15816
6 3 0.838501 0.515942 0.340078
10 3 0.583804 0.46309 0.189608
4 6 0.999614 0.878531 0.557297
1 3 0.869685 0.765638 0.517817
9 4 0.712284 0.385809 0.289438
