31
Atoms. Timestep: 10120
3 14.2838 75.8662 -4.79415
5 13.5179 76.5891 -5.21434
5 13.8992 75.5352 -3.78014
6 15.2932 76.5471 -4.5625
7 15.0867 77.2767 -3.96671
3 14.0416 74.3603 -5.83699
5 14.5035 74.6231 -6.83759
5 14.7325 73.5991 -5.35099
4 13.061 73.5754 -6.1341
3 12.0628 74.0415 -6.71983
5 11.2824 73.2196 -6.59729
5 12.3102 74.0648 -7.82931
3 11.2329 75.5343 -6.35416
5 11.3868 75.7445 -5.24807
5 11.8116 76.3485 -6.90434
4 10.0521 75.8095 -6.63076
3 9.13119 74.9428 -6.38269
5 8.25424 75.5748 -6.73851
5 9.07079 74.9282 -5.25145
3 8.6129 73.2358 -6.89456
5 9.47481 72.8219 -7.50431
5 7.77625 73.4227 -7.64393
4 8.11666 72.238 -6.25975
3 8.46766 72.062 -5.01939
5 7.5303 71.5619 -4.61675
5 9.25829 71.2516 -5.06886
3 9.01281 73.1861 -3.59854
5 8.14312 73.9092 -3.52767
5 9.8702 73.7583 -4.06941
6 9.36672 72.9802 -2.41392
7 9.59086 73.8061 -1.96805
