ITEM: TIMESTEP
10120
ITEM: NUMBER OF ATOMS
31
ITEM: BOX BOUNDS ss ss ss
-1.0736968993352024e+01 -3.1218013456265887e+00
-1.6803787722490988e+01 -1.0541624404491124e+01
3.1062673126623164e+01 4.1055602119310954e+01
ITEM: ATOMS id type xs ys zs
5 7 0.326951 0.640537 0.000300212
2 5 0.266617 0.487996 0.184848
3 5 0.392288 0.733824 0.198561
7 5 0.0995317 0.917919 0.317121
8 5 0.000393951 0.654765 0.313944
1 3 0.257106 0.667945 0.175253
6 3 0.129641 0.742036 0.330223
9 4 0.142087 0.71377 0.460275
4 6 0.234061 0.702671 0.0531619
14 5 0.514437 0.699485 0.382427
15 5 0.546344 0.944823 0.476951
13 3 0.511975 0.769383 0.487542
11 5 0.268296 0.669217 0.620649
12 5 0.249842 0.939889 0.559958
10 3 0.279097 0.77015 0.52623
19 5 0.894059 0.682871 0.543144
18 5 0.786154 0.940568 0.536292
21 5 0.809048 0.999521 0.768208
22 5 0.999606 0.833568 0.742902
26 5 0.883952 0.564308 0.9997
25 5 0.972963 0.498626 0.835664
28 5 0.67325 0.265588 0.791291
29 5 0.606089 0.325478 0.961854
31 7 0.669183 0.000479068 0.923402
17 3 0.780051 0.778233 0.58711
16 4 0.649026 0.679254 0.539161
20 3 0.850442 0.826642 0.749883
23 4 0.814863 0.740969 0.861191
24 3 0.847484 0.540361 0.890362
27 3 0.723446 0.28233 0.897548
30 6 0.766208 0.0984037 0.932651
