31
Atoms. Timestep: 10120
3 -8.77907 -12.621 32.814
5 -8.70663 -13.7479 32.9098
5 -7.74963 -12.2085 33.0469
6 -8.95455 -12.4035 31.5939
7 -8.24718 -12.7926 31.0657
3 -9.74973 -12.157 34.3626
5 -9.97902 -11.0556 34.2316
5 -10.734 -12.7035 34.1999
4 -9.65495 -12.334 35.6622
3 -8.6116 -11.981 36.3213
5 -8.69385 -12.613 37.2648
5 -8.83438 -10.918 36.6583
3 -6.83819 -11.9858 35.9347
5 -6.81945 -12.4235 34.8842
5 -6.57646 -10.8872 35.8288
4 -5.79453 -12.5502 36.4505
3 -4.79675 -11.9304 36.9296
5 -4.75027 -10.9138 36.4218
5 -3.92856 -12.5275 36.4903
3 -4.26071 -11.6272 38.5562
5 -4.57593 -10.5446 38.7393
5 -3.1248 -11.5839 38.4864
4 -4.53165 -12.1637 39.6685
3 -4.28323 -13.42 39.96
5 -3.32769 -13.6813 39.4134
5 -4.00553 -13.27 41.0526
3 -5.22781 -15.0358 40.0318
5 -5.61005 -15.1406 38.97
5 -6.1215 -14.7656 40.6744
6 -4.90216 -16.1876 40.3826
7 -5.64103 -16.8008 40.2902
