ITEM: TIMESTEP
10120
ITEM: NUMBER OF ATOMS
31
ITEM: BOX BOUNDS ss ss ss
4.0348535816986470e+01 4.6600395063924474e+01
1.1050231509421389e+01 1.6225374370383708e+01
2.4852035809855995e+01 3.7682115662029091e+01
ITEM: ATOMS id type xs ys zs
5 7 0.99952 0.99942 0.000233826
2 5 0.949593 0.780175 0.136575
3 5 0.890372 0.61747 0.0136981
7 5 0.528402 0.806003 0.174953
8 5 0.483334 0.627059 0.0537583
12 5 0.396622 0.246188 0.268966
11 5 0.344239 0.592881 0.263883
14 5 0.770565 0.606317 0.335428
6 3 0.594252 0.646589 0.123593
1 3 0.832707 0.774067 0.0689153
9 4 0.553163 0.437733 0.170717
10 3 0.47697 0.442945 0.259025
4 6 0.853553 0.977533 0.0226343
15 5 0.700263 0.282515 0.381603
18 5 0.626871 0.255006 0.503106
19 5 0.621345 0.54851 0.582724
21 5 0.183237 0.490717 0.512788
22 5 0.26792 0.158145 0.535112
13 3 0.6313 0.479951 0.361855
16 4 0.569208 0.581678 0.441181
17 3 0.537487 0.443628 0.51617
20 3 0.296166 0.36544 0.561307
23 4 0.238131 0.399409 0.655618
26 5 0.263494 0.0355929 0.698658
25 5 0.000479857 0.190909 0.697791
28 5 0.321095 0.224977 0.894921
29 5 0.0503768 0.35258 0.890611
31 7 0.101351 0.0491967 0.999766
24 3 0.173648 0.216187 0.722209
27 3 0.152073 0.179578 0.868844
30 6 0.0902186 0.000579694 0.927368
