31
Atoms. Timestep: 10120
3 45.5545 15.0561 25.7362
5 46.2853 15.0877 26.6043
5 45.915 14.2457 25.0278
6 45.6848 16.1091 25.1424
7 46.5974 16.2224 24.855
3 44.0637 14.3964 26.4377
5 43.652 15.2214 27.0967
5 43.3703 14.2954 25.5418
4 43.8068 13.3156 27.0423
3 43.3305 13.3425 28.1753
5 42.5007 14.1185 28.2377
5 42.8282 12.3243 28.3029
3 44.2953 13.534 29.4947
5 45.166 14.188 29.1556
5 44.7265 12.5123 29.748
4 43.9071 14.0605 30.5124
3 43.7088 13.3461 31.4745
5 44.2676 12.3699 31.3069
5 44.2331 13.8888 32.3284
3 42.2001 12.9414 32.0537
5 41.4941 13.5898 31.4311
5 42.0235 11.8687 31.7176
4 41.8373 13.1172 33.2637
3 41.4342 12.169 34.118
5 40.3515 12.0382 33.8048
5 41.9959 11.2344 33.8159
3 41.2993 11.9796 35.9994
5 42.356 12.2145 36.3339
5 40.6635 12.8749 36.2787
6 40.9126 11.0532 36.7502
7 40.9822 11.3048 37.6791
