LAMMPS data file via write_data, version 29 Sep 2021, timestep = 10000

2775 atoms
7 atom types
2417 bonds
6 bond types
3517 angles
9 angle types
1998 dihedrals
14 dihedral types

-2.5228634355834814 26.522863435583105 xlo xhi
-2.5228634355834814 26.522863435583105 ylo yhi
-2.5228634355834814 26.522863435583105 zlo zhi

Masses

1 15.9994
2 1.008
3 12.011
4 15.9994
5 1.008
6 15.9994
7 1.008

Pair Coeffs # lj/cut/tip4p/long

1 0.18479 3.165
2 0 0
3 0.056 3.58141
4 0.1 2.93997
5 0.035 2.38761
6 0.192 3.14487
7 0.046 0.40001

Bond Coeffs # harmonic

1 0 0.9572
2 222.35 1.53
3 308.79 1.1111
4 359.76 1.1415
5 427.715 1.142
6 544.635 0.96

Angle Coeffs # charmm

1 0 104.52 0 0
2 50 109 0 0
3 26.5 110.1 22.53 2.179
4 45 111.5 0 0
5 13.0258 109.4 0 0
6 35.5 109 5.4 1.802
7 55 108.89 0 0
8 75.7 110.1 0 0
9 95 109.7 0 0

Dihedral Coeffs # charmm

1 0.57 1 0 0
2 0.29 2 0 0
3 0.43 3 0 0
4 0.59 1 180 0
5 1.16 2 0 0
6 0.12 1 0 0
7 0.42 2 0 0
8 0.29 3 0 0
9 2.87 1 180 0
10 0.03 2 0 0
11 0.23 3 0 0
12 1.36 1 180 0
13 0.16 2 0 0
14 1.01 3 0 0

Atoms # full

29 1 5 0.09 -0.8332772842878544 -0.5675739552904768 1.5551428839148649 0 0 0
30 1 4 -0.34 0.5995516550161621 0.7534694921075835 1.6639622886488477 0 0 0
27 1 3 -0.01 -0.06621590113488596 0.024064242902963162 0.9836613161623573 0 0 0
24 1 3 -0.01 -0.8705998578493499 0.8412555434547637 0.003847619921966139 0 0 0
31 1 3 -0.01 0.7062518256378341 0.43813908535149926 2.7639342465133003 0 0 0
28 1 5 0.09 0.6080081041192762 -0.748043098904362 0.5751866148150451 0 0 0
33 1 5 0.09 -0.2720147755717077 0.3440605586210723 3.2053275648740964 0 0 0
32 1 5 0.09 1.2195049050916742 -0.5543318839572735 2.859451810438226 0 0 0
26 1 5 0.09 -1.6307499868435344 1.5923869572163332 0.5532637381921801 0 0 0
34 1 3 -0.01 1.5663244951799866 1.452744235950909 3.507366166618719 0 0 0
2067 122 2 0.527 1.518599146417169 2.2662144418297716 0.3351625767280755 0 1 0
37 1 4 -0.34 2.642910675309479 1.5291855669283905 3.034113168011438 0 0 0
38 1 3 -0.01 3.553572643652112 1.765090900026892 3.687573197186433 0 0 0
2065 122 1 -1.054 2.2711990354879488 2.8353993587000232 0.496043885718656 0 1 0
1821 40 2 0.527 2.8718053387332345 0.2765376501300727 0.4438975383533932 0 0 0
35 1 5 0.09 0.994209733242605 2.484660871417602 3.534642276149394 0 0 0
147 3 5 0.09 26.140662861140186 3.261436404961482 1.4971416973547038 0 0 0
41 1 3 -0.01 4.3990217764245845 2.918776068304883 2.935581448903334 0 0 0
2066 122 2 0.527 2.609676242338403 2.5514361993803085 1.3451958285984742 0 1 0
25 1 5 0.09 -1.5132412144723006 0.026962606074010242 -0.4897506344596496 0 0 0
23 1 4 -0.34 -0.133189356653018 1.5352584413344585 -0.5847845792457311 0 0 0
151 3 5 0.09 -1.9411016819535687 2.3503289971728734 3.3788628752270036 1 0 0
44 1 4 -0.34 3.697397987501982 3.8354481219875387 2.8968686175694955 0 0 0
2231 177 2 0.527 2.115243016394885 4.0872188417010165 -0.9224903101468 0 0 0
150 3 5 0.09 -2.2801802293588462 3.649331429534249 4.743247830911844 1 0 0
1819 40 1 -1.054 3.153614073679039 -0.6366698038318019 0.4977197099545667 0 0 0
36 1 5 0.09 1.557652530190345 0.9340269448509617 4.481844233287363 0 0 0
39 1 5 0.09 3.276123347461615 2.169602897773488 4.74832777008941 0 0 0
1820 40 2 0.527 4.0934844847411425 -0.5878920560148448 0.6724341079651976 0 0 0
42 1 5 0.09 4.461177631030667 2.5315282460262605 1.8610110329653535 0 0 0
146 3 5 0.09 -1.0737492455308864 3.734962055783794 1.949125691936227 1 0 0
40 1 5 0.09 4.161197974761937 0.7887508802611496 3.8702820426890687 0 0 0
145 3 3 -0.01 -2.1962935375934576 4.070498695286002 1.9805749813157174 1 0 0
144 3 5 0.09 -1.8104462968235007 5.098363443444051 0.10867393491787514 1 0 0
149 3 3 -0.01 26.44109097470983 3.2987738512645493 3.7408238009469157 0 0 0
396 6 7 0.42 22.973063956793837 11.450310375703234 5.474259921295126 0 0 0
142 3 3 -0.01 -2.3191567267480226 5.425225263360803 1.137570158970422 1 0 0
17 1 3 -0.01 1.0178498052717506 0.9012507214092911 -2.3941268545478103 0 0 0
14 1 5 0.09 3.195970181271197 0.22961570394182562 -1.8293707191906452 0 0 0
1295 20 3 -0.01 11.01542645348924 -1.2015723667116938 -2.4641050639424296 0 0 1
148 3 4 -0.34 -2.508267048440583 4.2837105668276845 3.069211495488167 1 0 0
91 2 5 0.09 16.396738667041248 -1.337127996611329 4.529936444693838 0 0 0
296 5 5 0.09 18.062181049098996 11.286264420529621 5.207918744153092 0 0 0
992 16 5 0.09 3.0788060045969123 -1.8745267992162429 3.820693146947719 0 1 0
2360 220 2 0.527 25.393066726607856 -1.1357620142876224 5.368235568775451 -1 0 0
1228 19 5 0.09 -0.7320121942388356 -1.3013735701662785 -1.9114645147970613 0 0 1
1002 16 5 0.09 6.165318180183627 -1.888608610160133 7.03634115001887 0 1 0
2367 222 2 0.527 2.867510282943182 -2.375365487549913 1.1271723922308032 0 1 0
2042 114 2 0.527 24.742502920110326 -1.5951266227599072 -2.4782091152464245 -1 0 1
2483 261 2 0.527 21.75630469930378 -1.6132826165659016 -0.2601108914438677 0 1 1
43 1 5 0.09 5.368122698618515 2.811882721791908 3.5590604133764403 0 0 0
2128 143 1 -1.054 11.675987682156045 3.416588621934408 -2.1830848127891977 0 0 1
129 2 5 0.09 7.305351711009681 3.1238555017599694 -1.6778198986447967 0 0 0
132 2 7 0.42 7.947862748527587 2.4764183383362077 0.8385393021842562 0 0 0
125 2 3 -0.01 8.106300115426887 4.344120875402769 -0.012259401870723607 0 0 0
124 2 4 -0.34 8.6561138627685 4.2199840299658335 0.9733791829150755 0 0 0
117 2 4 -0.34 8.515098432516924 2.600825636098646 2.754443199011658 0 0 0
118 2 3 -0.01 8.497193435134125 3.6852515827917633 3.1020521696816346 0 0 0
131 2 6 -0.65 7.654030702364061 2.2227940820809113 -0.06277295483155676 0 0 0
128 2 3 0.05 7.242505408553672 3.145346211603739 -0.5341301579324238 0 0 0
130 2 5 0.09 6.202772585587523 3.3152099410627 -0.28081450216855686 0 0 0
114 2 3 -0.01 8.586440786818022 1.7841001848678113 3.5867890470383283 0 0 0
110 2 4 -0.34 9.400717066345493 -0.05011694124430077 2.5084059935637386 0 0 0
1294 20 5 0.09 11.341029902345761 -0.14458551346225512 -0.6605074264278357 0 0 1
2623 308 1 -1.054 6.079192687867225 -0.5367724050942331 0.2944183989258282 0 0 1
2625 308 2 0.527 6.519837450305751 0.3097127193327851 0.21987913512929813 0 0 1
2624 308 2 0.527 6.787919821074919 -1.1795622711325815 0.26635054160415095 0 0 1
2091 130 2 0.527 7.053379345624169 -1.8194917648356428 3.0380975150338694 0 1 0
2090 130 2 0.527 8.20217812804596 -0.9545977903416294 3.5115817311368884 0 1 0
111 2 3 -0.01 9.760063510702611 0.7954992211134937 3.171824108154312 0 0 0
2089 130 1 -1.054 7.445558676744655 -1.448015259461231 3.8283261771530013 0 1 0
2279 193 2 0.527 10.367517893788794 2.898293016021814 0.4981741176656538 0 0 0
107 2 3 -0.01 10.199609020855174 -0.5502905801225253 1.8192335696623045 0 0 0
108 2 5 0.09 9.595014153592128 -0.6658452487077564 0.9141530632868791 0 0 0
2280 193 2 0.527 11.472133885739503 2.9887213561447323 -0.533142497098634 0 0 0
109 2 5 0.09 11.132355141181716 0.03294919128507123 1.5214149817077907 0 0 0
1292 20 3 -0.01 12.02992497771723 -0.7302246360939824 -1.384915540986936 0 0 1
112 2 5 0.09 10.658525705099757 1.4926611274240376 2.775034080920207 0 0 0
103 2 4 -0.34 11.034692195546434 -1.875620098057491 3.3938226556851046 0 0 0
104 2 3 -0.01 10.574607850851097 -1.9982186925603451 2.3037745101275213 0 0 0
127 2 5 0.09 7.4078789071754905 5.2698124230895225 -0.12365534527914734 0 0 0
115 2 5 0.09 8.761822863430746 2.1521760770464837 4.678113571407592 0 0 0
12 1 5 0.09 5.019200449159348 1.1484112792512033 -2.4276828123294676 0 0 0
1308 20 5 0.09 6.976547494660375 -1.0634793409743193 -1.8365512587466526 0 0 1
2278 193 1 -1.054 11.248491903656294 2.5790880954850968 0.3025883539976353 0 0 0
120 2 5 0.09 7.734082736488627 3.9711177067049164 3.933291403471766 0 0 0
126 2 5 0.09 8.972375958834563 4.524102811089862 -0.7576663714094942 0 0 0
1293 20 5 0.09 12.459949601045356 -1.6002791495998507 -0.855954525456432 0 0 1
1296 20 5 0.09 10.26788311548671 -1.8323680999769092 -1.8217660320741338 0 0 1
2186 162 2 0.527 26.03147444890778 -2.3662347267828574 11.417860483929726 0 1 0
2045 115 2 0.527 11.962345770921228 6.502358326227872 -2.4491290607359435 0 0 1
843 13 4 -0.34 2.243929899539043 10.779751977858123 11.654550756638063 0 0 0
1245 19 5 0.09 25.35687055457671 3.181324576882357 -2.4295428890675397 -1 0 1
113 2 5 0.09 10.120600885142597 0.3881905559000085 4.110917504917847 0 0 0
2511 270 2 0.527 14.862517261060383 11.303058833912184 -1.7937595012530927 0 0 0
2288 196 2 0.527 0.6586257590545341 11.754308216891937 1.2905130842146382 0 0 0
1025 16 5 0.09 0.24905002105008345 -2.29439333220769 10.796181267095642 0 1 0
2246 182 2 0.527 8.88659401538255 2.117379681219262 11.912688137866994 0 0 0
253 4 3 -0.01 25.92966395609337 11.93496620463771 1.7297343657312734 -1 0 0
2478 259 2 0.527 25.99386795571432 -1.9609265251270211 7.7085473814366825 0 0 0
20 1 3 -0.01 -0.1874376921368781 1.5676775714472528 -1.7809201147698117 0 0 0
2523 274 2 0.527 13.347512486064101 2.756425693359657 2.7449999886100507 0 0 0
1291 20 4 -0.34 12.732522183887072 0.043597254187303314 -1.8541014219406913 0 0 1
1290 20 5 0.09 13.51793580616543 0.8576678679856045 -0.2576331708757933 0 0 1
2521 274 1 -1.054 13.407469030059405 3.1666110379436043 1.8822056071714446 0 0 0
1288 20 3 -0.01 13.646768711665914 0.3062287683449494 -1.1987249670072426 0 0 1
85 2 5 0.09 15.12573366361866 1.2156026539229705 1.7829373813564935 0 0 0
76 2 3 -0.01 18.153246556072034 2.2527747137966436 0.3535818220567166 0 0 0
82 2 4 -0.34 16.99728195987076 1.2206883783681168 2.141874725089208 0 0 0
83 2 3 -0.01 16.025428371785406 0.644325150301778 1.594740766202773 0 0 0
79 2 3 -0.01 17.280229732720173 2.208747660818429 1.6006400813516652 0 0 0
81 2 5 0.09 17.907416030550493 2.6442799125130456 2.417080733132819 0 0 0
80 2 5 0.09 16.409361433595134 2.9312799583497355 1.5148703693630932 0 0 0
77 2 5 0.09 17.5437998283891 2.761112524266557 -0.5111843371809934 0 0 0
1286 20 5 0.09 15.492782171750004 1.5426529661571697 -1.2549618403153593 0 0 1
84 2 5 0.09 16.16718567330029 0.2868927669965968 0.49783657188112285 0 0 0
2522 274 2 0.527 12.669335813658995 2.8040896004296396 1.3923091082425496 0 0 0
184 3 3 -0.01 20.44759601419123 -1.8596208503634546 6.511047190042003 0 0 0
89 2 4 -0.34 15.337595712211478 -0.683713043242705 3.2396759160982107 0 0 0
86 2 3 -0.01 15.751560145592993 -0.831248293994256 2.128966698367096 0 0 0
78 2 5 0.09 19.0553237487062 2.9939596023726267 0.511563026992417 0 0 0
193 3 5 0.09 18.240692929520677 0.35323855312543984 4.605338170263311 0 0 0
665 11 7 0.42 14.546993256538261 1.4440523562050713 4.509518053574327 0 0 0
664 11 6 -0.65 13.871139798909066 2.098562447138967 4.32387230035543 0 0 0
1863 54 2 0.527 14.329107734985328 4.367055140086332 0.46554338090799785 0 0 1
75 2 4 -0.34 18.720615521210203 1.2429764966120147 0.2140313919554142 0 0 0
71 2 7 0.42 19.023084792615116 -0.4339724886243106 0.7598912467113861 0 0 0
87 2 5 0.09 16.672813077819423 -1.4242352970678962 1.7993500821157138 0 0 0
90 2 3 -0.01 15.545428487968302 -1.6382452707780675 3.9559350706152676 0 0 0
1823 41 2 0.527 15.879226314931561 5.022027479982 3.953028763221976 0 0 0
88 2 5 0.09 15.033405711025011 -1.3175620340465746 1.3316964121067874 0 0 0
1289 20 5 0.09 14.360173918030398 -0.564467459841028 -0.9311289910345903 0 0 1
657 10 5 0.09 25.64900892060641 0.6265054009760727 11.34022777775055 -1 0 0
72 2 3 -0.01 19.125144512380352 1.014111056512716 -0.8615169088431913 0 0 0
70 2 6 -0.65 19.495461814033156 -0.9980947664627378 0.10699373242720167 0 0 0
67 2 3 0.05 19.40243703236628 -0.4919649771809036 -0.9489941646816282 0 0 0
73 2 5 0.09 20.031552720684587 1.7223637097558226 -1.02023132339831 0 0 0
743 12 3 -0.01 20.572095544336594 5.345216796859716 11.403496604265431 0 0 0
68 2 5 0.09 18.528304189146738 -0.9269069450060534 -1.5955486832103776 0 0 0
2637 312 2 0.527 19.14823372073752 4.355818802067763 4.277718222864511 0 0 0
22 1 5 0.09 -0.099189692589019 2.6250266696410076 -2.0972302086604437 0 0 0
1834 45 1 -1.054 25.89351461032397 -0.8544093779568169 3.316421567450824 -1 1 0
325 5 5 0.09 12.650251521337445 11.038971847026504 10.000502586871486 0 0 0
153 3 5 0.09 25.1456605181471 1.768310797701158 4.650280057828957 0 0 0
154 3 5 0.09 24.81924681812191 2.147627441437521 2.807265870174418 0 0 0
69 2 5 0.09 20.40119937914917 -0.631556256266097 -1.4929135685891768 0 0 0
152 3 3 -0.01 25.044218986872863 2.6117593021084895 3.8793854641528798 0 0 0
2317 206 1 -1.054 22.646479779890626 0.3375092221918625 -0.3206586079342526 -1 0 0
2647 316 1 -1.054 23.534272056374864 3.2013581100690818 0.6679213098416805 0 0 0
194 3 3 0.05 20.162084012000772 0.7260273360453655 3.726810917398571 0 0 0
198 3 7 0.42 21.099281116845784 -0.14623177158757183 4.769898168760009 0 0 0
197 3 6 -0.65 21.19742263295288 0.3319832804101921 3.918201044325002 0 0 0
1892 64 2 0.527 23.19893001024341 -0.1889996744793354 1.5071452890970747 0 1 0
155 3 4 -0.34 24.235052931696682 3.2816969374259255 4.381652952897763 0 0 0
158 3 5 0.09 22.583351625103386 3.406650449405525 3.3383140578024353 0 0 0
156 3 3 -0.01 23.07159567199822 2.9263473834838027 4.273836809701497 0 0 0
195 3 5 0.09 20.20641558431571 1.7465848313110914 3.273056675073013 0 0 0
2649 316 2 0.527 24.1974964094142 3.8891438323796397 0.7257575910192151 0 0 0
2648 316 2 0.527 22.732637238715768 3.6613145053775487 0.4187575752588666 0 0 0
2319 206 2 0.527 22.66950728044108 1.2508533196159068 -0.03511869407832613 -1 0 0
2233 178 1 -1.054 21.25151521847966 4.471278268315069 0.006234124425730236 0 0 0
196 3 5 0.09 19.636922312428414 0.1101662367470797 2.9110875267790393 0 0 0
2318 206 2 0.527 23.226167993923557 0.3093511480085205 -1.0818613013263858 -1 0 0
2235 178 2 0.527 20.730323461967302 4.770235965795707 -0.7389130419058099 0 0 0
157 3 5 0.09 22.804093723683213 1.8309208284936602 4.286654446651041 0 0 0
1893 64 2 0.527 22.826535065105677 -0.18402025760955176 2.9745459845441458 0 1 0
1905 68 2 0.527 25.844477567328784 -2.1848860506923464 -0.23096665395555194 0 1 0
1891 64 1 -1.054 23.41083467198358 -0.6039884811598104 2.3432920965951194 0 1 0
2234 178 2 0.527 20.75160657421207 4.746678274897004 0.7746786776087453 0 0 0
160 3 5 0.09 21.254399830564125 3.1226674924786275 5.120392301572348 0 0 0
1836 45 2 0.527 26.49794451411549 -1.0822617815068463 2.6100161845715144 -1 1 0
141 3 4 -0.34 25.628894575331937 5.749286967681673 0.9822296773763175 0 0 0
2130 143 2 0.527 12.025156294234112 2.5263874677786697 -2.2264946200907536 0 0 1
1000 16 3 -0.01 5.191230010191031 -2.339344159738535 7.44037444972596 0 1 0
2567 289 2 0.527 18.943423527300244 5.125170442198494 2.091970284241973 0 0 0
2443 248 1 -1.054 19.6808570058892 5.30273046465729 -2.139855035429656 0 0 0
2566 289 1 -1.054 19.742825894527925 4.851689172604465 2.5418865584411607 0 0 0
191 3 3 -0.01 19.27242859275112 0.6538573516314226 5.010408152231965 0 0 0
105 2 5 0.09 11.350058950223978 -2.39305951768286 1.5548298410799264 0 0 0
47 1 5 0.09 4.5021166173625735 5.025856865409759 4.236837609568608 0 0 0
53 1 5 0.09 1.6136106329391042 4.77736125871258 2.983973078458509 0 0 0
2230 177 1 -1.054 1.9627559197675968 4.763168028712698 -1.5828699232330767 0 0 0
56 1 5 0.09 -0.32823957639073775 5.661040367210187 4.1005832489862035 0 0 0
45 1 3 -0.01 4.229031602554887 4.863212255288782 3.1068144264488016 0 0 0
143 3 5 0.09 -1.6555421015726095 6.092772828962776 1.7640747586907972 1 0 0
2622 307 2 0.527 3.5774203310810844 5.762914602055879 -1.7222413237965724 0 0 0
261 4 5 0.09 25.99368545486754 9.092727194569676 -1.2043842248539627 -1 0 0
49 1 5 0.09 3.3811695016064727 5.897643665990239 1.456075042232622 0 0 0
48 1 3 -0.01 3.403611925343202 6.048178475799503 2.5973215986424982 0 0 0
52 1 3 -0.01 1.6002479239314749 5.9415563550953205 3.094290934793957 0 0 0
51 1 4 -0.34 2.634625613419808 6.311449809668575 3.3763649971396807 0 0 0
233 4 5 0.09 2.56074189168839 10.866855831474917 -0.2594120533544477 0 0 0
232 4 3 -0.01 3.161601622356252 11.313468924097451 0.6223093224678715 0 0 0
237 4 5 0.09 2.418120348781861 9.165350945516618 1.1963437849715883 0 0 0
235 4 4 -0.34 2.549010816438389 11.09083264584199 1.6513276325187123 0 0 0
260 4 3 0.05 -2.4033514177080195 9.762418901740782 -0.5971049828880772 0 0 0
262 4 5 0.09 -1.8296410372144276 9.00111331913866 -0.03457925633975201 0 0 0
50 1 5 0.09 4.017942074920133 7.007281097170626 2.5808270959690383 0 0 0
2036 112 2 0.527 3.4874081822991023 7.755775326698137 -2.1667936808698562 0 0 1
236 4 3 -0.01 2.636265463495188 10.021958647778305 1.9403621608125938 0 0 0
54 1 5 0.09 0.9717157270203907 6.405050504452854 2.234131770577421 0 0 0
239 4 3 -0.01 1.736715090054875 9.93259842150578 3.2460239836457774 0 0 0
238 4 5 0.09 3.701465183212653 9.994428277371338 2.37109431116612 0 0 0
2037 112 2 0.527 3.132072661561966 9.213875913406673 -2.3659090405144094 0 0 1
234 4 5 0.09 4.234127851623478 10.875243856859843 0.4911233639182111 0 0 0
55 1 3 -0.01 0.7301842075339793 6.145975636143643 4.363820378191996 0 0 0
57 1 5 0.09 0.6440785032448297 7.245880490810297 4.443833453183666 0 0 0
263 4 6 -0.65 -1.743359464986163 10.377695141877025 -1.3121263070736515 0 0 0
264 4 7 0.42 -1.1729525810776138 10.909777467915099 -0.7192661300720571 0 0 0
74 2 5 0.09 18.437964517893516 1.113838537045194 -1.7348811260597437 0 0 0
242 4 4 -0.34 0.6375910258512558 10.422264506199364 3.155104774105922 0 0 0
243 4 3 -0.01 -0.03222190511989842 10.270606832949458 4.054232462768811 0 0 0
46 1 5 0.09 5.146258740302826 5.03165645836214 2.4194728018304144 0 0 0
257 4 3 -0.01 25.778901217386814 10.525607984282708 0.3770568173703466 -1 0 0
256 4 4 -0.34 26.48975560269569 11.199747634480158 1.007178578507817 -1 0 0
259 4 5 0.09 25.149075585078812 9.818529205136336 1.0052633112384517 -1 0 0
249 4 4 -0.34 -1.790743619067639 11.239190292778144 3.3025240415688826 0 0 0
2237 179 2 0.527 0.9549128532759572 6.330542192252752 -1.2708097415905448 0 0 1
241 4 5 0.09 1.7537007754856013 8.824385112006212 3.512094856916516 0 0 0
245 4 5 0.09 -0.577065776567407 9.34079800873045 3.9259797948080646 0 0 0
240 4 5 0.09 2.3888155053038576 10.403239773035736 4.117200728493835 0 0 0
2238 179 2 0.527 1.0908072355048737 7.728068203462277 -1.8368674379711512 0 0 1
2035 112 1 -1.054 2.7477292497228873 8.363206291878551 -2.1540078722751903 0 0 1
11 1 5 0.09 4.132499042236756 2.698555617265674 -1.975155502887171 0 0 0
2503 268 1 -1.054 7.218062179147763 11.375884998361892 3.4889190118193723 0 0 0
2621 307 2 0.527 4.518256995321777 6.812143608868814 -1.1691475443686832 0 0 0
121 2 3 -0.01 7.983829229334825 4.44264227897667 1.9355701127375848 0 0 0
123 2 5 0.09 6.885644521645256 4.088042007568741 1.9653223179474475 0 0 0
2384 228 2 0.527 8.681205611078921 10.379226109593688 2.5322821602319445 0 0 0
2504 268 2 0.527 6.435294053494708 11.924714330401477 3.537098181436005 0 0 0
2571 290 2 0.527 15.108073728536755 11.725315966734524 3.584471850349158 0 0 0
2731 344 1 -1.054 5.254060688004142 7.927919669512388 -0.15804688433533443 0 0 1
119 2 5 0.09 9.505750014178451 4.132606723673321 3.468041652155029 0 0 0
2652 317 2 0.527 11.611272101144221 11.931038281556873 -0.7485485261045357 0 0 0
122 2 5 0.09 7.898340030589049 5.5555345777091905 2.1886197270318766 0 0 0
2051 117 2 0.527 6.413658454686534 9.693355161484995 2.809990658990891 0 0 0
2732 344 2 0.527 5.444107279048629 8.289499403915336 0.7076338624530063 0 0 1
2733 344 2 0.527 6.094210917467468 7.948146739448049 -0.6163039691488486 0 0 1
2050 117 1 -1.054 6.3453869117904045 8.813370227294634 2.439549866311225 0 0 0
940 15 4 -0.34 25.453324318478426 10.359530433435276 9.815101287074189 0 0 0
1515 23 5 0.09 8.199891543900469 7.783229041725377 0.17892246186148775 0 0 1
1517 23 6 -0.65 7.722620732248183 7.7732235795320666 -1.6927437043652431 0 0 1
1516 23 5 0.09 9.311866809040568 6.999391020369098 -1.2050389583428085 0 0 1
1514 23 3 0.05 8.570390281381306 7.809849744306991 -0.9395016112729686 0 0 1
1511 23 3 -0.01 9.232694219428584 9.210298312066966 -1.0800963751145545 0 0 1
1512 23 5 0.09 8.461967383584392 9.974943081079735 -0.6751369566840228 0 0 1
2383 228 1 -1.054 9.589659370630573 10.19119315730769 2.296451082409482 0 0 0
1513 23 5 0.09 10.231027847628091 9.087408471459153 -0.538285210742921 0 0 1
2385 228 2 0.527 9.69911492260603 9.259510226464258 2.4868383858404153 0 0 0
1508 23 5 0.09 9.483234128053928 11.364217190288487 -1.7865550989450365 0 0 1
2052 117 2 0.527 6.149317591434125 8.251814086832342 3.1895314936048544 0 0 0
2203 168 1 -1.054 9.44108345579059 7.620035578577154 3.6201051678715936 0 0 0
2205 168 2 0.527 9.82704487097962 7.3849973372062845 4.463936649119344 0 0 0
2204 168 2 0.527 8.571754846150167 7.219615054558444 3.633958830161813 0 0 0
2001 100 2 0.527 10.816848207088189 11.565623578066058 1.7732405135507143 0 0 0
1510 23 4 -0.34 9.303691048446938 9.41775884055959 -2.224152909988632 0 0 1
588 9 5 0.09 19.30162909447158 -2.275098767948653 2.4789875915576385 0 1 0
996 16 3 -0.01 4.290291166192667 -1.9310961001798437 5.719807422261283 0 1 0
2426 242 2 0.527 10.631901935543185 3.476194119321219 11.882447472466376 0 0 0
1999 100 1 -1.054 11.44510407141966 11.9887772127498 1.1880086205695561 0 0 0
313 5 5 0.09 10.716343141752 10.20942604122164 5.6045267062509865 0 0 0
1831 44 1 -1.054 5.6623493541222025 7.77812398928053 4.905487864352078 0 0 0
291 5 3 -0.01 17.876959275126076 11.80443087155389 2.943132257156356 0 0 0
293 5 5 0.09 18.904038024181798 11.420849054539017 2.595707302227151 0 0 0
741 12 5 0.09 21.161125972488517 7.621039214931164 10.70199386643395 0 0 0
2044 115 1 -1.054 12.131779289426122 6.211846983219473 -1.5529391932306433 0 0 1
2760 353 2 0.527 13.442535119803228 4.9021064609402 2.6337803375510243 0 0 0
1838 46 2 0.527 12.870237167876844 5.618737042505867 4.5207772413198954 0 0 0
2482 261 1 -1.054 21.985504863636585 -2.5228296453727523 -0.45103583389816526 0 1 1
1861 54 1 -1.054 14.922086186466125 5.039688677832672 0.13057855281169495 0 0 1
2046 115 2 0.527 12.295976199458538 5.2721616620293235 -1.6322601741048488 0 0 1
2711 337 2 0.527 16.333494228255955 9.75622173459012 -1.7683202747922482 0 0 0
1249 19 5 0.09 23.247359448864312 2.9731818895493367 -2.0814889817870315 -1 0 1
311 5 5 0.09 11.914021092729431 10.555589692080893 3.1694480240265754 0 0 0
2101 134 1 -1.054 13.560234645430974 7.2449075484921845 0.6252343768944764 0 0 1
2103 134 2 0.527 13.130052335723443 7.128084083446165 -0.2218525681336332 0 0 1
2102 134 2 0.527 13.933490993292413 8.125450830628884 0.5854351487755411 0 0 1
2422 241 1 -1.054 14.017554890035893 10.096464302693944 0.7244177473168043 0 0 0
2424 241 2 0.527 13.935276594028291 10.647329958681288 -0.054066845021985 0 0 0
2329 210 1 -1.054 17.269119815038927 6.10377944413775 1.8088858806511228 0 0 1
2331 210 2 0.527 16.94372900223401 6.986301492148376 1.6313004084216667 0 0 1
2330 210 2 0.527 16.80003565720416 5.54570301101362 1.188586291083849 0 0 1
2423 241 2 0.527 13.481191014485212 10.533838914564303 1.3856878737708405 0 0 0
2747 349 2 0.527 15.959716827570734 5.55390415940181 -1.2581267238939584 0 0 0
1811 37 2 0.527 15.657377758680099 9.298513519959648 1.3391451021545913 0 0 0
1810 37 1 -1.054 16.37965160201271 8.855796272968833 1.7847714603211555 0 0 0
1812 37 2 0.527 16.557341424962218 9.399413528782757 2.5523444704655134 0 0 0
2746 349 1 -1.054 16.625925965133636 5.968978770267592 -1.8059765151602698 0 0 0
2759 353 2 0.527 13.715306894876925 6.327458342019007 2.20257827406825 0 0 0
2758 353 1 -1.054 13.696218531685812 5.760318346197062 2.9734535442497014 0 0 0
1862 54 2 0.527 14.45519457726219 5.86325735419098 0.2720270518338559 0 0 1
2254 185 1 -1.054 17.9719395324214 10.75470042194662 -1.5242895282659266 0 0 0
2256 185 2 0.527 18.567594530659974 10.18102653034613 -1.042258233066157 0 0 0
365 6 5 0.09 19.109098631251673 8.860723068051536 1.4044703096314093 0 0 0
1029 16 5 0.09 2.160051898986711 -1.4217227132288404 11.929877269079265 0 1 0
295 5 3 -0.01 17.618865309162267 10.535046630524258 4.440975248848298 0 0 0
297 5 5 0.09 18.32356458943049 9.701706913827506 4.04657018653374 0 0 0
366 6 5 0.09 20.029017345353466 7.3041132433498 1.2342427443096464 0 0 0
2255 185 2 0.527 18.476076977992754 11.554992085179695 -1.6713931551543415 0 0 0
248 4 5 0.09 -1.9157599957936053 11.039293403806479 5.0635117932764855 0 0 0
309 5 3 -0.01 12.05019329029163 9.91566681817068 4.043421049530379 0 0 0
307 5 5 0.09 13.91844349381319 8.72194355480052 2.981159765439747 0 0 0
1518 23 7 0.42 7.931632041028095 8.483516370379823 -2.31119014021079 0 0 1
1282 20 5 0.09 15.088603772656459 3.801626427183911 -2.2169370359015566 0 0 1
18 1 5 0.09 1.1684179424820962 -0.13116434597778026 -1.864956794197921 0 0 0
2444 248 2 0.527 18.763241924042507 5.547666910364921 -2.020483741426994 0 0 0
2043 114 2 0.527 23.768599464346565 -2.041454174238315 -1.4085028482018973 -1 0 1
372 6 5 0.09 22.159473035930652 10.923205195381323 3.51735206730553 0 0 0
139 3 5 0.09 26.124530269680697 6.733759269694108 -0.7234239182013471 0 0 0
2601 300 2 0.527 24.217358427880182 4.926593073291675 3.579228193187566 -1 0 1
363 6 5 0.09 18.869933228735057 8.10962365832193 -0.7784662129327908 0 0 0
134 3 5 0.09 23.81060605450677 7.679609735544586 -0.6532464661589319 0 0 0
258 4 5 0.09 24.985653426603516 11.166415736056848 -0.22326649452333758 -1 0 0
140 3 5 0.09 25.914583063659492 7.56066867952886 0.8511798302486522 0 0 0
369 6 5 0.09 20.71229280914984 10.790297238933675 1.3963021478776585 0 0 0
2748 349 2 0.527 16.28060518133707 6.844185048497861 -1.9821250974321143 0 0 0
370 6 5 0.09 20.370395766635585 9.685965620518399 2.9999829990225235 0 0 0
2568 289 2 0.527 20.056509402152884 5.644479192143953 2.977027234530877 0 0 0
137 3 7 0.42 22.9910418949602 7.529302516339531 0.9260369657312082 0 0 0
138 3 3 -0.01 25.535858939289966 6.672929049108404 0.2844692918194416 0 0 0
368 6 3 -0.01 21.002725412807095 9.837340326194596 2.0305722476446553 0 0 0
373 6 5 0.09 23.163362140434753 10.503397034792854 1.9130324913187087 0 0 0
364 6 3 -0.01 20.089414334448218 8.431390488375062 1.008363488727856 0 0 0
367 6 4 -0.34 21.088787924794033 8.775343800489994 1.5214724377464606 0 0 0
371 6 3 -0.01 22.435751303457003 10.150743932028595 2.675808422958931 0 0 0
135 3 5 0.09 23.861755901336018 5.858001653698896 -0.7879990795530116 0 0 0
361 6 3 -0.01 20.02441166504814 8.284578413405805 -0.6261941317325634 0 0 0
360 6 4 -0.34 20.1853997541878 9.326517626257438 -1.175835556962424 0 0 0
362 6 5 0.09 20.61898219480735 7.305578508196568 -0.8425199946850177 0 0 0
133 3 3 0.05 24.03407655207457 6.716807750461964 -0.11124115944700153 0 0 0
136 3 6 -0.65 23.275651448915728 6.622135987383858 0.7174525767476045 0 0 0
2600 300 2 0.527 24.254107182384875 6.065562924949491 2.582551188964925 -1 0 1
2599 300 1 -1.054 23.897433519955964 5.817225474253258 3.4354130704085613 -1 0 1
2657 319 2 0.527 22.24677211026099 6.366149080783432 3.4343458327101875 0 0 0
2658 319 2 0.527 21.727459904616566 7.788188018114189 3.4437240223871584 0 0 0
2656 319 1 -1.054 21.472879742153985 6.88800707823534 3.6465148729825367 0 0 0
357 6 3 -0.01 21.244910246267843 9.63553795486222 -1.4814841644447405 0 0 0
358 6 5 0.09 22.17701499836356 9.5280658588788 -0.7920265141249132 0 0 0
374 6 4 -0.34 22.954242560642715 9.191221607720173 3.1685687068181565 0 0 0
354 6 3 -0.01 21.309447183068958 11.080815389946718 -1.984065193337206 0 0 0
353 6 4 -0.34 20.64518034033512 11.697668334494397 -1.2428378843687808 0 0 0
376 6 5 0.09 24.498089462538584 10.447305222149307 3.785574308664523 0 0 0
377 6 5 0.09 24.70966320944154 8.681660826400163 3.078066226685384 0 0 0
375 6 3 -0.01 24.004186983175142 9.424410224746493 3.6425690307514635 0 0 0
1968 89 2 0.527 8.848039250789075 5.491960498955077 11.283243189576039 0 0 0
182 3 5 0.09 22.63286409253839 -2.115939434317791 7.416323288469451 0 0 0
2236 179 1 -1.054 0.4394401398761003 7.073838738567144 -1.5839533729236028 0 0 1
998 16 5 0.09 4.1109595768337295 -0.8483948360219276 5.843658052520526 0 1 0
16 1 4 -0.34 1.9693219461681126 1.544992432634432 -2.3861547034126467 0 0 0
740 12 5 0.09 20.779250099418 6.393557719719267 9.328854527520466 0 0 0
621 10 3 -0.01 4.596068505380285 3.1207667747055154 10.81441666499186 0 0 0
623 10 5 0.09 4.004610679520275 2.2996112122415004 10.414473596820393 0 0 0
60 1 5 0.09 0.21522613233515875 4.070308775097817 5.412822806760524 0 0 0
1802 34 2 0.527 -0.7488617422217101 -0.04482517104097239 6.054819657402678 1 0 0
1801 34 1 -1.054 -1.2805636353421734 0.6897174287318859 5.748223529227467 1 0 0
63 1 5 0.09 1.4153032245282926 3.146375502457893 6.980971247060046 0 0 0
2634 311 2 0.527 1.1714462771639522 1.7168527427633906 10.046491772876214 0 1 0
2632 311 1 -1.054 1.2775763618519878 0.7665878536041011 10.001837572400682 0 1 0
2633 311 2 0.527 0.44722666595614413 0.41691321754550126 10.32511480623367 0 1 0
2242 181 1 -1.054 0.4018160675484568 -1.2155737173456729 6.68524549904647 0 1 0
2244 181 2 0.527 1.2093073413943216 -0.8376910413345913 7.033704106116497 0 1 0
2743 348 1 -1.054 2.6366735811629516 -0.5248623463757796 8.188874163536966 0 0 -1
2745 348 2 0.527 2.970887681463159 -1.334075119877645 8.575832054344662 0 0 -1
2744 348 2 0.527 2.269243091856321 -0.03949317824486487 8.927570606156882 0 0 -1
2669 323 2 0.527 -0.1614392272976799 3.029258697809367 9.599123991589634 0 0 0
2668 323 1 -1.054 0.6797759475168248 3.3833991346853045 9.88757218962605 0 0 0
2243 181 2 0.527 0.6947757484581527 -1.823552108177303 6.006424587419499 0 1 0
1803 34 2 0.527 -2.1824768477527066 0.37480790865607005 5.808601053725024 1 0 0
619 10 5 0.09 3.9305699081699936 4.12759762384345 8.996955758779464 0 0 0
2738 346 2 0.527 3.493472803216907 1.0300116416853253 7.338047080693846 0 1 0
2739 346 2 0.527 3.695546181377085 2.5144639308039762 7.1200202643132275 0 1 0
2737 346 1 -1.054 4.1712593061178636 1.7052346942394347 7.3073866010774715 0 1 0
2034 111 2 0.527 -1.456866189006285 -1.0112211085079723 9.04441737588212 0 0 0
62 1 3 0.05 1.8184508184497128 4.210205731065374 6.849121418692883 0 0 0
618 10 3 -0.01 4.1753543827307915 4.369716685245412 10.104305442339456 0 0 0