LAMMPS data file via write_data, version 8 Feb 2023, timestep = 10000

2775 atoms
7 atom types
2417 bonds
6 bond types
3517 angles
9 angle types
1998 dihedrals
14 dihedral types

-2.561109125264304 26.561109125263854 xlo xhi
-2.561109125264304 26.561109125263854 ylo yhi
-2.561109125264304 26.561109125263854 zlo zhi

Masses

1 15.9994
2 1.008
3 12.011
4 15.9994
5 1.008
6 15.9994
7 1.008

Pair Coeffs # lj/cut/tip4p/long

1 0.18479 3.165
2 0 0
3 0.056 3.58141
4 0.1 2.93997
5 0.035 2.38761
6 0.192 3.14487
7 0.046 0.40001

Bond Coeffs # harmonic

1 0 0.9572
2 222.35 1.53
3 308.79 1.1111
4 359.76 1.1415
5 427.715 1.142
6 544.635 0.96

Angle Coeffs # charmm

1 0 104.52 0 0
2 50 109 0 0
3 26.5 110.1 22.53 2.179
4 45 111.5 0 0
5 13.0258 109.4 0 0
6 35.5 109 5.4 1.802
7 55 108.89 0 0
8 75.7 110.1 0 0
9 95 109.7 0 0

Dihedral Coeffs # charmm

1 0.57 1 0 0
2 0.29 2 0 0
3 0.43 3 0 0
4 0.59 1 180 0
5 1.16 2 0 0
6 0.12 1 0 0
7 0.42 2 0 0
8 0.29 3 0 0
9 2.87 1 180 0
10 0.03 2 0 0
11 0.23 3 0 0
12 1.36 1 180 0
13 0.16 2 0 0
14 1.01 3 0 0

Atoms # full

29 1 5 0.09 -0.3876842929981019 -0.7814254395695373 1.7441711485034022 0 0 0
30 1 4 -0.34 0.8200118781849732 0.7033475562298075 1.8318788381135747 0 0 0
27 1 3 -0.01 0.36443851655496484 -0.1735066186600993 1.177172729088292 0 0 0
24 1 3 -0.01 -0.17508599286703852 0.5279513448764908 -0.03666837741213236 0 0 0
31 1 3 -0.01 1.1149046771911135 0.38503879254645623 2.925208304945465 0 0 0
28 1 5 0.09 1.190447323362315 -0.8914235643904125 0.8365283667044987 0 0 0
33 1 5 0.09 0.164349272685806 -0.05172311537344898 3.5502508539357676 0 0 0
32 1 5 0.09 1.936035034397018 -0.4378711028119495 3.043556394986367 0 0 0
26 1 5 0.09 -0.9764928639910522 1.3038937512218416 0.24290842408828306 0 0 0
34 1 3 -0.01 1.59157353496715 1.5901852792628768 3.6872468859077125 0 0 0
36 1 5 0.09 1.565306745589007 1.3004240888329006 4.769679335240631 0 0 0
2067 122 2 0.527 2.4037282615345745 1.0028621926746455 0.00867380471657242 0 1 0
37 1 4 -0.34 2.6111005577853073 1.84331802167552 3.16895554647928 0 0 0
38 1 3 -0.01 3.2747034068168634 2.533747006337843 3.801104754607528 0 0 0
2065 122 1 -1.054 3.239997660615132 1.30173383547859 0.3658384016659322 0 1 0
1819 40 1 -1.054 5.019901486461236 -0.6378527529353795 0.07228124081091902 0 0 0
1821 40 2 0.527 4.454737243945435 0.10899693124631593 0.2698721089246692 0 0 0
35 1 5 0.09 0.9752800124719756 2.4718337484848067 3.5253092171120324 0 0 0
147 3 5 0.09 -0.64873054233618 3.3077969927017286 1.8410182948786522 1 0 0
41 1 3 -0.01 3.9519032386804858 3.6567050399506744 2.9618924885875746 0 0 0
2066 122 2 0.527 3.041561719466041 1.5449456436354376 1.2701108488145048 0 1 0
25 1 5 0.09 -0.6118954233096154 -0.39312818787115944 -0.580024407464077 0 0 0
23 1 4 -0.34 0.6037775431111738 1.0202429806515103 -0.7766276289515379 0 0 0
151 3 5 0.09 -2.1734636193765127 1.5589164866277256 2.7168778463334453 1 0 0
2232 177 2 0.527 2.7376452125925237 2.563667582217623 -2.1882552776764026 0 0 0
2230 177 1 -1.054 2.8371859453531467 3.335122628345437 -1.6304151888057148 0 0 0
44 1 4 -0.34 3.4306297564833077 3.87781122211692 1.9684716079311588 0 0 0
2231 177 2 0.527 2.9344416847918557 2.981121222633658 -0.7464118525232715 0 0 0
22 1 5 0.09 0.5566533356449659 2.4532422021122624 -1.41764404123953 0 0 0
20 1 3 -0.01 0.1019240270648818 1.42198004704548 -1.738909550783092 0 0 0
149 3 3 -0.01 26.471982115415535 2.548106811231518 2.9804270895641123 0 0 0
148 3 4 -0.34 26.422866250757693 3.2879899547322333 2.0238764664072324 0 0 0
1835 45 2 0.527 26.151050497196188 25.569756750375475 3.644015160050473 -1 0 0
1230 19 5 0.09 -0.9339492740608653 25.981626860146214 -1.5829975605606048 0 -1 1
40 1 5 0.09 4.141704903900204 1.9157546900418376 4.131848477868124 0 0 0
145 3 3 -0.01 -1.6455010448141274 3.8526815636411795 1.7625856649757674 1 0 0
39 1 5 0.09 2.8165260554459763 3.0181777971519717 4.79084642883144 0 0 0
1820 40 2 0.527 5.795882794897281 -0.5020809340030183 0.6160241657891872 0 0 0
11 1 5 0.09 4.224401495681872 0.6357735216110267 -2.4778509445009647 0 0 0
144 3 5 0.09 -1.9514773271207808 3.3096210280400076 -0.40098899778810404 1 0 0
150 3 5 0.09 -2.0545846606431177 3.0378173833681874 3.8549495451821 1 0 0
45 1 3 -0.01 3.5541132732761795 4.957076668252056 1.5688244244330347 0 0 0
142 3 3 -0.01 -1.8542474488279534 4.167771644638809 0.299345133172062 1 0 0
49 1 5 0.09 1.6112726088090117 5.060232378617045 0.9666807007214002 0 0 0
46 1 5 0.09 3.9126051720861454 4.870918471878538 0.48307710056758113 0 0 0
143 3 5 0.09 -0.8462384580118933 4.665224831863332 0.07291640698118851 1 0 0
60 1 5 0.09 0.12534019948428465 4.5902498808028644 6.428526824782901 0 0 0
21 1 5 0.09 -1.0292538626499734 1.4760998965243042 -1.8648484031902774 0 0 0
42 1 5 0.09 4.9224344721818545 3.1799197890292277 2.7257648174499325 0 0 0
43 1 5 0.09 4.040683351431113 4.531516196540068 3.7437224223705474 0 0 0
129 2 5 0.09 7.880280304017058 2.4092360199509626 -1.9258252439369836 0 0 0
132 2 7 0.42 9.333055582532799 1.2723959161898324 -1.7577238709120682 0 0 0
125 2 3 -0.01 8.514521128159684 3.4125707923874398 -0.15235295888293532 0 0 0
124 2 4 -0.34 9.105319495664098 3.340625423269123 0.8357052197940225 0 0 0
117 2 4 -0.34 9.79705184106082 2.610381693067371 3.1279610427344435 0 0 0
121 2 3 -0.01 8.861602498762188 4.130551791818669 1.6691514602064128 0 0 0
118 2 3 -0.01 8.932974504235005 3.3502408237141745 3.0292802167614106 0 0 0
131 2 6 -0.65 8.920128774967319 1.3623412939128667 -0.8817272044391737 0 0 0
128 2 3 0.05 8.144173343298007 2.11567472760549 -0.8581545762648348 0 0 0
130 2 5 0.09 7.1295818923347465 1.7237851723791486 -0.5101378225379882 0 0 0
114 2 3 -0.01 10.003173010833391 2.277678125776359 4.279220765377905 0 0 0
110 2 4 -0.34 10.60152916960337 0.06720221461510123 4.3090932105438995 0 0 0
1294 20 5 0.09 11.573935604149888 0.077801136880288 -0.22339263106045593 0 0 1
2623 308 1 -1.054 7.588932192939884 -0.16892765801570508 1.4342494330599775 0 0 1
2625 308 2 0.527 8.22396421123982 0.3076788020994705 0.8996299005347961 0 0 1
2624 308 2 0.527 7.822241293922691 -1.0901774035825569 1.3197797117136547 0 0 1
2091 130 2 0.527 8.011727770370351 0.22131700122226095 4.370938528784693 0 1 0
2090 130 2 0.527 7.004771805824287 -0.25258312991483756 3.344601479722292 0 1 0
2158 153 1 -1.054 8.357942058105111 26.369113582202154 1.2160188532071206 0 -1 1
2128 143 1 -1.054 10.95775921177643 2.4992321660140044 26.052969034228923 0 0 0
111 2 3 -0.01 11.059248239587344 1.159209307901485 4.457343803002463 0 0 0
2089 130 1 -1.054 7.213271771230788 -0.2983099460028895 4.277700818066398 0 1 0
2279 193 2 0.527 10.72194812560113 3.413804744289169 -0.10507226346922405 0 0 0
127 2 5 0.09 7.426220709228213 3.7279504175137665 -0.0742448867855412 0 0 0
2130 143 2 0.527 11.704269576194681 1.9699344081225325 25.772249102996774 0 0 0
2278 193 1 -1.054 11.579074097849597 3.483810688128777 -0.5253956742038404 0 0 0
2324 208 2 0.527 6.529997052436455 1.3288345256468066 5.1363162224420496 0 0 0
120 2 5 0.09 7.92664895516976 2.787692979273208 2.9571122663739313 0 0 0
1311 20 5 0.09 6.763491508751439 -2.3739783022379353 -0.6800373677680429 0 0 1
107 2 3 -0.01 10.812332841211646 -0.49319568895675214 3.3754678981349002 0 0 0
108 2 5 0.09 9.845067259440448 -0.9750589452023595 3.203461259508292 0 0 0
2280 193 2 0.527 11.466577533668769 3.053506543277498 -1.3729924959662243 0 0 0
119 2 5 0.09 8.726899414867225 4.169429208541459 3.8252064513110646 0 0 0
1296 20 5 0.09 10.070741501687623 -1.507459668907682 -0.994135625746992 0 0 1
1292 20 3 -0.01 12.086575261167697 -0.8181697113852837 -0.7902510377182699 0 0 1
1293 20 5 0.09 12.205213995442085 -1.6691879126911517 0.007866102874642067 0 0 1
1291 20 4 -0.34 13.071900146065536 -0.6828177055474449 -1.4109728794312995 0 0 1
109 2 5 0.09 11.03023046851724 0.051650790416942094 2.412509940761395 0 0 0
112 2 5 0.09 12.02590052810995 1.437458057208882 3.964145659168759 0 0 0
104 2 3 -0.01 11.897184440406091 -1.5626642228245171 3.6290352132203747 0 0 0
1295 20 3 -0.01 11.002628944899518 -1.4553547865234067 -1.7042784376478652 0 0 1
1297 20 5 0.09 11.369122869572681 -2.5259012772677423 -1.9283550386932218 0 0 1
115 2 5 0.09 10.526679795250715 3.185466667083923 4.7382965169438 0 0 0
1290 20 5 0.09 13.646161221517202 0.4592535527883883 0.053494857855489464 0 0 1
2523 274 2 0.527 11.689428182714263 2.234308876021763 2.173391180283639 0 0 0
2521 274 1 -1.054 12.525026694072569 2.3170908657430838 1.7138700244727039 0 0 0
1288 20 3 -0.01 13.902569904078154 -0.24408425336687234 -0.7706645706584427 0 0 1
75 2 4 -0.34 17.859102747435244 2.0053631449731686 0.5033256890672955 0 0 0
85 2 5 0.09 15.058268397330716 -0.3489531184672785 1.7748922060450285 0 0 0
76 2 3 -0.01 17.483184934822773 2.4138338903284042 1.5198512232170085 0 0 0
82 2 4 -0.34 16.615659715946464 0.6637920143074059 2.402097595602747 0 0 0
83 2 3 -0.01 16.204597216566604 -0.2579276366331511 1.9233108840256081 0 0 0
79 2 3 -0.01 16.235574001762068 1.6354443172520154 2.0051597996829535 0 0 0
81 2 5 0.09 15.771944462166397 2.2879956905800753 2.895636237787903 0 0 0
80 2 5 0.09 15.400981193999536 1.7122954500604548 1.197217327646673 0 0 0
77 2 5 0.09 17.167533191597748 3.5160747023425465 1.3495381093247625 0 0 0
1286 20 5 0.09 15.749949163402894 0.7573256520479372 -1.0564132176511978 0 0 1
78 2 5 0.09 18.178387397935204 2.545031476947594 2.432459981608388 0 0 0
84 2 5 0.09 16.670911612833613 -0.3928265517125755 0.8526704868753292 0 0 0
2522 274 2 0.527 12.283172920679963 2.529987892887564 0.812527405014317 0 0 0
1287 20 5 0.09 15.236681900618818 -0.34599532551618095 -2.4100237307751837 0 0 1
1285 20 3 -0.01 14.880189399833005 0.4599748163047499 -1.7018487088111756 0 0 1
1282 20 5 0.09 14.041268332659465 2.820573012921681 -1.953559023185012 0 0 1
1289 20 5 0.09 14.682506415470767 -1.0163404720987037 -0.38363124228043244 0 0 1
74 2 5 0.09 18.279962102086678 3.259533286488672 -0.7480532630323016 0 0 0
89 2 4 -0.34 16.147968961098606 -1.5095580206198496 3.7884919744856864 0 0 0
87 2 5 0.09 17.788354844636977 -1.5085290561607356 2.783107481153455 0 0 0
189 3 5 0.09 18.605487647822542 0.21441347193156624 4.28911261291602 0 0 0
71 2 7 0.42 18.63894497821031 0.5480343164246886 -0.46708632196562894 0 0 0
86 2 3 -0.01 16.666981527310597 -1.572042762290484 2.7271102319910305 0 0 0
88 2 5 0.09 16.278779083245865 -2.4502332060590044 2.1545370815312417 0 0 0
113 2 5 0.09 11.266205561510274 1.2970353908840506 5.607299046257012 0 0 0
72 2 3 -0.01 18.797672931049824 2.594449649593029 -0.002899660510977231 0 0 0
70 2 6 -0.65 19.378631847745773 0.661236351420051 -1.1018095897631672 0 0 0
1822 41 1 -1.054 15.454305088117122 5.0062274975140335 3.79493527520268 0 0 0
105 2 5 0.09 12.917850773786741 -1.0510396120782466 3.7862540147417265 0 0 0
1284 20 4 -0.34 14.3388930942116 1.2217056112420397 -2.451730195717149 0 0 1
1281 20 3 -0.01 14.829356373608542 2.3084369692497537 -2.545879184221993 0 0 1
1283 20 5 0.09 15.814099193989167 2.582408250032879 -2.036506481020196 0 0 1
192 3 5 0.09 20.943854236954245 1.1049560540409629 2.891590527323685 0 0 0
153 3 5 0.09 25.295379711519786 1.7178932996877965 4.623176678248335 0 0 0
68 2 5 0.09 20.233776268186503 2.149083720143242 -1.6575653315763699 0 0 0
154 3 5 0.09 24.75094650589284 1.1020439816104894 2.954640478837871 0 0 0
67 2 3 0.05 19.79126165383387 1.633419795928849 -0.7266674063813352 0 0 0
73 2 5 0.09 19.42906520166934 3.126653936139097 0.7443217715523884 0 0 0
69 2 5 0.09 20.686406295095736 1.3700975379291047 0.016810656187468354 0 0 0
152 3 3 -0.01 25.07451444725296 2.046305356361989 3.576276639777366 0 0 0
2317 206 1 -1.054 24.097026041101117 -1.0778116769622006 0.2735444527298472 -1 0 0
191 3 3 -0.01 20.441192698153785 0.06944385119428098 2.9158353580348138 0 0 0
2647 316 1 -1.054 24.286010162954803 1.9307276087635907 0.5230748881372018 0 0 0
194 3 3 0.05 21.215977666901153 -0.8733369218870297 2.113054908066564 0 0 0
198 3 7 0.42 20.39275725359893 -2.016830001937196 2.87925200808084 0 0 0
197 3 6 -0.65 20.646474847895263 -1.7961486339923405 1.9774183146581228 0 0 0
1892 64 2 0.527 25.08727906271975 -2.0449817846441216 1.5101495429730116 0 1 0
155 3 4 -0.34 24.380232030976934 2.9467316682399085 3.5924282952469744 0 0 0
158 3 5 0.09 22.84446158256391 3.239520627238548 2.7906774327872492 0 0 0
156 3 3 -0.01 23.250631158698717 2.7715153127675736 3.713824460418942 0 0 0
1891 64 1 -1.054 25.274280181599302 26.536330375616615 2.2774101023515296 0 0 0
195 3 5 0.09 22.23879219402179 -0.9914409801151436 2.630115892017537 0 0 0
2649 316 2 0.527 24.79844547082009 2.3360044624466925 1.2226449438068623 0 0 0
2648 316 2 0.527 23.578420583686523 2.5524743140901878 0.35282341163161046 0 0 0
2319 206 2 0.527 24.250356481343708 -0.1337363814445096 0.3116125840437731 -1 0 0
2233 178 1 -1.054 22.21399254907626 3.6353115690627895 -0.058839279507926445 0 0 0
196 3 5 0.09 21.505670471361313 -0.3656607875916418 1.1349966336730795 0 0 0
2318 206 2 0.527 23.35624515892065 -1.176707486324228 -0.3245364271091056 -1 0 0
2235 178 2 0.527 22.09093557295558 4.0048363336285115 -0.9332224409451011 0 0 0
160 3 5 0.09 21.671508351186958 3.4169256449563843 4.926551289649349 0 0 0
161 3 5 0.09 22.97987657534763 4.7342511674329835 4.678485637761675 0 0 0
2488 263 1 -1.054 21.99319753786348 -0.9512188904343943 -1.4468755205472623 0 0 0
2489 263 2 0.527 21.21145037481847 -0.7219178094381014 -0.9443519508921241 0 0 0
193 3 5 0.09 19.444786803978253 0.16556993324295588 2.4112214394351117 0 0 0
190 3 4 -0.34 20.43355252186199 -0.4164586716862191 4.036210867158688 0 0 0
1252 19 5 0.09 23.299415152877465 1.2505856510573814 -1.5932215910503307 -1 0 1
157 3 5 0.09 22.845883853658407 1.7234828343721187 3.7812315147686313 0 0 0
1893 64 2 0.527 24.640289530129003 25.820961366232716 2.227005581561788 0 0 0
2414 238 2 0.527 21.936609879181276 25.781501989134476 1.7481209908639572 0 0 0
2483 261 2 0.527 20.36668645316118 24.99457554406802 -2.0636026507454255 0 0 1
139 3 5 0.09 25.231308331007305 4.091182384566259 -0.9863430640997539 0 0 0
47 1 5 0.09 4.408323300185273 5.546746100703206 1.9094456301746217 0 0 0
53 1 5 0.09 0.17704600170117413 6.289293785668766 2.1961634973378352 0 0 0
146 3 5 0.09 -1.474419203210156 4.899717599749665 2.322807174521305 1 0 0
48 1 3 -0.01 2.2431636551339116 5.73454465779858 1.616060100555238 0 0 0
52 1 3 -0.01 1.0009517423618899 6.4563882945832045 3.0253920465626774 0 0 0
51 1 4 -0.34 2.014433243465721 6.051722230868998 2.7445771897344446 0 0 0
233 4 5 0.09 4.212555787554167 10.191441553853506 -0.07319282810780914 0 0 0
2368 223 1 -1.054 1.3728407570200147 10.186593694691885 -1.0144853716148134 0 0 1
2370 223 2 0.527 2.0931082171946818 10.768395985167071 -1.2572988648543202 0 0 1
2369 223 2 0.527 1.0468569016868106 10.54064305767997 -0.18706704176684497 0 0 1
232 4 3 -0.01 4.303362482102306 10.298001593627243 1.1060122542773332 0 0 0
2037 112 2 0.527 2.60548314877773 8.687386004011284 -1.4995189238148021 0 0 1
2035 112 1 -1.054 2.8364825797103226 7.792747564922868 -1.749516266079707 0 0 1
264 4 7 0.42 -0.21719418368746002 8.90656681879198 -1.6993759952843892 0 0 0
237 4 5 0.09 2.4149567712217594 9.175203197490942 2.186360774808347 0 0 0
263 4 6 -0.65 -0.8486633039046219 8.16026725765712 -1.7558425622962943 0 0 0
235 4 4 -0.34 3.262242483406334 10.713093981213547 1.3835057030815507 0 0 0
260 4 3 0.05 -0.7816616505851284 7.69117239320007 -0.726906017351562 0 0 0
262 4 5 0.09 0.32310577606523827 7.675922097028531 -0.3914594678575942 0 0 0
261 4 5 0.09 -1.2151872375996622 6.658631090917302 -0.5890194649133669 0 0 0
257 4 3 -0.01 -1.496547530068861 8.574034753515603 0.34885251063658096 0 0 0
259 4 5 0.09 -0.5858896971344236 9.130757185779702 0.8373831767480526 0 0 0
50 1 5 0.09 2.297120700016939 6.604495512342838 0.8894238802313756 0 0 0
258 4 5 0.09 -1.8010983926119277 7.801058707300864 1.0823609044183136 0 0 0
2036 112 2 0.527 3.6032489878692084 7.584765964041646 -1.2156151719895727 0 0 1
256 4 4 -0.34 -2.1177453057472673 9.508169575482189 -0.023373610726638017 0 0 0
236 4 3 -0.01 2.7050559612688545 10.240975215108845 2.3015167749430923 0 0 0
54 1 5 0.09 1.088813364942772 7.575585791335021 2.988708502113659 0 0 0
56 1 5 0.09 -0.4681056611403429 5.485325390963025 4.443574278514861 0 0 0
2622 307 2 0.527 4.554046742960375 4.406258279643341 -1.6347862892080158 0 0 0
2287 196 1 -1.054 3.385197306832713 12.247174799664448 -1.7998190868261648 0 0 0
2288 196 2 0.527 3.3800470926285042 12.164595427707381 26.368778865092718 0 0 -1
250 4 3 -0.01 26.410186493141516 11.538186897018537 0.6570772178804889 -1 0 0
242 4 4 -0.34 0.832981838878184 11.103121758837144 1.623234866234621 0 0 0
247 4 5 0.09 -0.7171494425609781 11.559570160322934 -0.4761747406168064 0 0 0
239 4 3 -0.01 1.4765506414157885 11.002663734063441 2.586371183681874 0 0 0
241 4 5 0.09 0.8739918683344587 10.4927647603999 3.4072690104782835 0 0 0
249 4 4 -0.34 -1.7333482330184065 11.837736096202788 1.2342940288717918 0 0 0
240 4 5 0.09 1.8325900922783767 11.925879929862282 3.098231958971019 0 0 0
238 4 5 0.09 3.3476524891432637 10.451012019598352 3.2593276164255016 0 0 0
55 1 3 -0.01 0.40678682785412423 6.180672109663018 4.415828529757838 0 0 0
2399 233 2 0.527 -1.4663687877856912 10.969346750925913 3.2290890394603844 1 0 0
2223 174 2 0.527 -1.9395765278439252 7.0350546867753625 26.0022344429336 0 0 0
1435 22 5 0.09 -0.5755089341989856 10.29408036221378 25.558048300729027 0 0 0
122 2 5 0.09 9.67973620334791 4.890371735888872 1.7480381296956544 0 0 0
123 2 5 0.09 7.862184077752286 4.742970786822116 1.693819881761054 0 0 0
234 4 5 0.09 4.519864170093901 9.246095550933417 1.4605663222903287 0 0 0
126 2 5 0.09 8.980055084378563 4.153026496681551 -0.8973744889832913 0 0 0
231 4 5 0.09 5.38749030632974 12.13605646791105 0.6134914897323798 0 0 0
229 4 3 -0.01 5.416388242713877 11.297396325847755 1.4140491672919064 0 0 0
2620 307 1 -1.054 5.253482930761128 5.0169169169937105 -1.867428747041536 0 0 0
2621 307 2 0.527 5.122141268018027 5.7653117613733365 -1.2852843684153166 0 0 0
2051 117 2 0.527 6.910392019618422 7.056451417299408 2.72981748105364 0 0 0
2731 344 1 -1.054 5.1219725992298075 7.3828690861352 -0.32572103454862456 0 0 1
2732 344 2 0.527 5.293710582137498 7.327476461144839 0.6143189825564219 0 0 1
2733 344 2 0.527 5.987835099395271 7.477301896820293 -0.7227124181666158 0 0 1
2050 117 1 -1.054 6.090873256074904 7.104755298468948 2.2375845384231443 0 0 0
1518 23 7 0.42 7.797978827910127 7.914509452169886 -2.313996866635405 0 0 1
1515 23 5 0.09 8.065689429311925 8.179489500635619 0.13272660373571732 0 0 1
1517 23 6 -0.65 7.555040753912261 7.3689205067342485 -1.5487127062566541 0 0 1
1516 23 5 0.09 8.559177548998802 6.382129142182913 -0.3924017045845263 0 0 1
1514 23 3 0.05 8.432705515773938 7.490363781454523 -0.7336881276125662 0 0 1
1511 23 3 -0.01 9.788433338347943 8.074801363925134 -1.3443140762431138 0 0 1
1512 23 5 0.09 10.531712924858672 8.318584767013746 -0.4055609784897536 0 0 1
230 4 5 0.09 6.393093113271055 10.754983173758028 1.1766919573589183 0 0 0
2504 268 2 0.527 6.6891464346752 10.674634641090979 3.398905587662802 0 0 0
2384 228 2 0.527 8.507005149374324 10.183341819786953 2.2602183706974097 0 0 0
2383 228 1 -1.054 9.154286488992637 9.995098439805519 1.5806384441305976 0 0 0
1513 23 5 0.09 10.236011997279066 7.130533569420216 -1.703208883064507 0 0 1
2385 228 2 0.527 9.619296435526952 9.221685425996027 1.8997546337880866 0 0 0
1508 23 5 0.09 9.018378417324083 10.306920616656534 -0.9905342513407212 0 0 1
2503 268 1 -1.054 7.53410399248367 10.375686831785615 3.7349331060694038 0 0 0
1510 23 4 -0.34 9.649149421038159 8.782664228140082 -2.2084496695994287 0 0 1
2052 117 2 0.527 5.422703469213148 7.279112251567426 2.900446759109524 0 0 0
2001 100 2 0.527 10.892226690336047 11.157940869437056 1.742671953138026 0 0 0
1507 23 3 -0.01 9.680166751299183 9.920523039568154 -1.8615276044413354 0 0 1
1509 23 5 0.09 10.724665557369553 10.23433819470486 -1.5711511753787597 0 0 1
2203 168 1 -1.054 8.761622459309876 7.644931851628483 3.46118068935937 0 0 0
2289 196 2 0.527 4.106918611052167 12.848131391622545 -1.6148675411319902 0 0 0
2205 168 2 0.527 9.57961309426186 7.414410664190566 3.901622237381292 0 0 0
2204 168 2 0.527 8.385979291239488 8.340278509339422 4.001201642934507 0 0 0
2045 115 2 0.527 12.571787668047854 6.026503823619159 -1.7822016551181266 0 0 1
2101 134 1 -1.054 11.871957596041039 7.515660788958499 1.4512173770220667 0 0 1
1837 46 1 -1.054 10.949614544749094 6.395664143182168 4.930416602939328 0 0 0
2103 134 2 0.527 11.938491924966293 6.778013954175444 0.8448447901637617 0 0 1
2046 115 2 0.527 12.429128710528307 4.992017258227655 -0.6861199136097451 0 0 1
1824 41 2 0.527 14.555755945250974 5.178122545445485 3.5133349161914555 0 0 0
1838 46 2 0.527 11.567212910078505 6.058200764248237 4.281626769052479 0 0 0
1823 41 2 0.527 15.979716035294595 5.659476216774269 3.3329321886204575 0 0 0
2044 115 1 -1.054 12.542594231703672 5.931491349722943 -0.8301733274684502 0 0 1
2102 134 2 0.527 12.45239767421124 8.181930199661762 1.0832337505048475 0 0 1
2710 337 1 -1.054 15.424899045049914 9.89111304989945 -1.4060139153876154 0 0 0
2711 337 2 0.527 16.356914952825214 9.699334492071575 -1.3020684490599461 0 0 0
2422 241 1 -1.054 13.761444753549975 9.567361356026588 0.682922439241946 0 0 0
2424 241 2 0.527 14.340294738631561 9.834775351972839 -0.030982344262251882 0 0 0
2329 210 1 -1.054 17.36399601705667 6.68501916829775 1.7486030012100384 0 0 1
2331 210 2 0.527 17.448021641219086 7.631067294134578 1.8676409191237573 0 0 1
2330 210 2 0.527 16.59569345224748 6.581076517670025 1.1872255947978019 0 0 1
2423 241 2 0.527 13.181627005097443 10.317343325535518 0.8154965806138312 0 0 0
2747 349 2 0.527 16.12795304111239 6.569720608885062 -1.323701329061257 0 0 0
1811 37 2 0.527 15.70514546210707 9.037774509458027 1.6768134894482474 0 0 0
1810 37 1 -1.054 16.58813779161465 9.371627388452515 1.835256798954494 0 0 0
1812 37 2 0.527 16.48105477672241 10.006965336180311 2.543152353124233 0 0 0
2746 349 1 -1.054 16.58954251565458 5.8171961717838805 -1.6936738609012387 0 0 0
2748 349 2 0.527 17.430479340925878 5.80306670656678 -1.2366584843453192 0 0 0
1999 100 1 -1.054 11.709479044362459 11.435496003046502 1.3287888258353386 0 0 0
2759 353 2 0.527 12.72317461714294 6.350005550417752 2.5184383019254204 0 0 0
2760 353 2 0.527 12.529945047114616 4.854321700728912 2.3861447569498697 0 0 0
2758 353 1 -1.054 12.885796995440403 5.522733851316321 2.971663302774269 0 0 0
2567 289 2 0.527 18.688683103325886 5.769905906536549 2.811971870329991 0 0 0
370 6 5 0.09 19.405736418321332 8.685458067226572 2.1651321974710678 0 0 0
2511 270 2 0.527 15.251480080124908 11.966603553641137 -2.1476625518632577 0 0 0
299 5 5 0.09 18.056368869486867 9.47201217376697 5.0983372002838845 0 0 0
2566 289 1 -1.054 19.337685600368452 5.30691271677745 3.341755341280213 0 0 0
2234 178 2 0.527 21.910365586880197 4.32077601175937 0.5362965560784274 0 0 0
253 4 3 -0.01 26.31244391721023 9.955430382822353 0.70103508670771 -1 0 0
255 4 5 0.09 26.158293804037875 9.494522877151548 1.703136957822994 -1 0 0
365 6 5 0.09 19.525794360942037 8.324689146930401 -0.24081967948910776 0 0 0
2568 289 2 0.527 20.043266468831092 5.098957142294671 2.729262411188995 0 0 0
141 3 4 -0.34 26.48487240846938 5.027908280653495 0.2059045859654285 0 0 0
2256 185 2 0.527 20.077913999510756 11.054453028659113 -1.8614773328321408 0 0 0
363 6 5 0.09 21.02854150285212 9.011310302207937 -2.0265900171784743 0 0 0
2601 300 2 0.527 24.72965756078677 4.77122728176866 2.449526772517901 -1 0 1
137 3 7 0.42 25.52899399947107 7.535876176802578 -0.7048746910246257 0 0 0
369 6 5 0.09 20.071964996728248 9.977440808073 1.1917114332570589 0 0 0
138 3 3 -0.01 25.813586423161098 5.050609069072918 -0.7454232348659156 0 0 0
368 6 3 -0.01 20.348588774111654 8.98351970828225 1.682412737082517 0 0 0
373 6 5 0.09 22.116885953237706 10.22853966448361 2.1745925265449007 0 0 0
364 6 3 -0.01 20.591788321015066 8.101481275461131 -0.0643886731828851 0 0 0
367 6 4 -0.34 20.9610868541104 8.153271919427475 1.0239960825070638 0 0 0
371 6 3 -0.01 21.36420347204259 9.528022314444652 2.6851688253953503 0 0 0
366 6 5 0.09 20.720465667855983 7.040155839528026 -0.3777294911751743 0 0 0
135 3 5 0.09 23.730602491817415 5.719318191879548 -0.22905792421489313 0 0 0
361 6 3 -0.01 21.459405780874746 8.968742083691328 -0.9997440450758428 0 0 0
360 6 4 -0.34 21.40593252563258 10.146623719190831 -0.781764719705762 0 0 0
362 6 5 0.09 22.45704097931666 8.473735124394235 -1.1495515418390212 0 0 0
133 3 3 0.05 24.68305889564401 6.0645523737740294 -0.6717362703873844 0 0 0
136 3 6 -0.65 24.948419034789865 7.037777646031728 -0.11244444001087484 0 0 0
254 4 5 0.09 25.242452339137103 9.911417810741815 0.2699862643337667 -1 0 0
2600 300 2 0.527 24.84755985834905 5.923154006901951 1.474296977193121 -1 0 1
2599 300 1 -1.054 24.400261353833166 5.653120442883903 2.2763214064834862 -1 0 1
2024 108 2 0.527 24.845515437138033 6.476056150117403 4.50930035438147 0 0 0
2657 319 2 0.527 22.648136908782647 5.557562123176828 2.176817676274296 0 0 0
2658 319 2 0.527 21.597522709877495 6.503326811897805 1.6349243060110172 0 0 0
2656 319 1 -1.054 21.75823413713971 5.579032163320493 1.8248948304007744 0 0 0
357 6 3 -0.01 22.39532587887711 10.771978195703083 -1.0007686219249936 0 0 0
358 6 5 0.09 23.290771075731847 10.453896285089316 -0.3689583753008101 0 0 0
372 6 5 0.09 20.874958441616485 10.00513921982563 3.5166354038398158 0 0 0
374 6 4 -0.34 21.797443235558703 8.691483591767748 3.470197419555711 0 0 0
376 6 5 0.09 23.570679485925375 9.70898302317667 3.4822227418700678 0 0 0
377 6 5 0.09 23.31613762642216 7.869236420447498 3.6289359118904896 0 0 0
375 6 3 -0.01 22.866432461276823 8.906865060764819 3.928802325576588 0 0 0
134 3 5 0.09 24.43770239131907 6.358620430727687 -1.7454309335595497 0 0 0
140 3 5 0.09 26.43019429355507 5.301410304101087 -1.7244002166213848 0 0 0
251 4 5 0.09 26.01210828438495 11.912237665057457 -0.35292847858546006 -1 0 0
252 4 5 0.09 25.689178739974352 12.044058631773277 1.3688684827325779 -1 0 0
396 6 7 0.42 23.210891806848295 12.583468964804013 4.198073740275361 0 0 0
355 6 5 0.09 22.393508511401294 12.445856053771793 0.5415321636921044 0 0 0
2619 306 2 0.527 19.426236535550466 6.43292609756196 4.529927842172964 0 0 0
359 6 5 0.09 22.60171657553648 10.739805388281058 -2.1169462163712582 0 0 0
246 4 3 -0.01 -0.821184564968956 12.126941683712749 0.47005737363710276 0 0 0
243 4 3 -0.01 0.5379064702861123 12.200022049268574 1.2569611469068112 0 0 0
244 4 5 0.09 1.192150101076213 12.89623360241582 0.63756798269231 0 0 0
245 4 5 0.09 0.16639734266632944 12.864807007509366 2.1361336190561167 0 0 0
420 7 3 -0.01 3.196246593083222 16.965081277909228 0.4945379877247089 0 0 0
422 7 5 0.09 2.887618769184292 15.90889669970114 0.6194874417450298 0 0 0
1948 83 1 -1.054 0.3526357258818087 15.76447192323207 -0.9066450673918287 0 0 0
1950 83 2 0.527 0.42859429868928656 15.629877913587789 0.03799892033457475 0 0 0
461 7 6 -0.65 -0.18390919733876565 15.819918766495329 1.9723226912326792 0 0 0
419 7 4 -0.34 2.15658386305672 17.50154778202372 0.44238285039866776 0 0 0
418 7 5 0.09 3.0534921151057244 19.23707294306014 -0.03870632276057817 0 0 0
1949 83 2 0.527 1.0543372811284488 16.380064522215264 -1.1185368627246255 0 0 0
462 7 7 0.42 -0.2744824675384714 16.78565511842087 1.8905888408186637 0 0 0
416 7 3 -0.01 2.1295775140279636 18.607430453754077 0.0033063326877211807 0 0 0
2076 125 2 0.527 1.5817443880641333 15.496533241556735 2.9446929719775774 0 0 0
2708 336 2 0.527 -1.1907329890422094 16.487992098575468 -1.1464728994507392 0 0 0
426 7 4 -0.34 3.7808303973477875 17.56111828776936 2.5944832512938296 0 0 0
458 7 3 0.05 -1.1391246567115205 15.517486246606351 2.5246629342970417 0 0 0
410 7 5 0.09 1.1240274189583337 16.680479390211204 26.041611970560048 0 0 -1
459 7 5 0.09 -1.4734014149726624 14.435360265374568 2.1699701242273157 0 0 0
2075 125 2 0.527 2.4459209125278196 16.59738397631051 3.521958665019988 0 0 0
2074 125 1 -1.054 2.0272402643797163 15.76672198853552 3.747667915526323 0 0 0
248 4 5 0.09 -1.06960507866213 13.174715042633894 0.1503723036395579 0 0 0
433 7 4 -0.34 3.2177086405704642 18.08849232603587 5.194334012257809 0 0 0
413 7 3 -0.01 1.3370292822423164 18.607455265514062 -1.318166920480245 0 0 0
414 7 5 0.09 0.1255676780937791 18.351351359858818 -1.1198754215067501 0 0 0
430 7 3 -0.01 3.826420151603732 18.779159087267644 4.433950793207837 0 0 0
439 7 5 0.09 0.8569189314646346 18.142441926546326 4.925010194875757 0 0 0
1446 22 5 0.09 2.383023212008128 14.602275398579467 25.68944244546244 0 0 0
421 7 5 0.09 3.647899649489834 16.844265002075332 -0.5264881607110343 0 0 0
429 7 5 0.09 4.9846273443022975 17.01683816924094 3.9524687266116345 0 0 0
1447 22 5 0.09 2.1814304689109747 14.978764839554207 23.92788947232046 0 0 0
1442 22 5 0.09 0.4984744435311774 13.159384634784086 26.014652672502088 0 0 0
2707 336 1 -1.054 -2.1057964899084123 16.75883213282558 -1.2209177667171047 0 0 0
2709 336 2 0.527 -2.069831451200083 17.606913504319927 -1.663299989773963 0 0 0
412 7 4 -0.34 1.9211125562943696 18.158316001693564 -2.211632624875364 0 0 0
1449 22 5 0.09 4.33480463500689 13.828921387822652 24.977201409249986 0 0 0
1445 22 3 -0.01 2.199646714347847 14.138234320626834 24.66021850707814 0 0 0
460 7 5 0.09 -0.9558358153280471 15.715846289192724 3.6224736943859766 0 0 0
417 7 5 0.09 1.532665798337983 19.130599413777894 0.7810766231195427 0 0 0
432 7 5 0.09 3.1692141084418157 19.47361876563727 3.8084368062723035 0 0 0
452 7 5 0.09 26.149053632788835 18.688203547370016 1.0788032162854937 -1 0 0
228 4 4 -0.34 5.3803033924262085 11.70277742528136 2.5246198931682526 0 0 0
226 4 5 0.09 4.668476239968131 13.608730060848314 1.9148683079306812 0 0 0
423 7 3 -0.01 4.235782198795659 17.314971796020387 1.5051321165181868 0 0 0
427 7 3 -0.01 4.516819249689013 17.86605865789104 3.4136775677259417 0 0 0
425 7 5 0.09 4.932167619173196 16.37831160297344 1.6384018145372572 0 0 0