LAMMPS data file via write_data, version 12 Dec 2018, timestep = 4000000

10759 atoms
6 atom types
5390 bonds
3 bond types
3069 angles
3 angle types
976 dihedrals
3 dihedral types
168 impropers
2 improper types

-3.1274999999999999e+01 3.1274999999999999e+01 xlo xhi
-8.5222999999999995e+00 8.5222999999999995e+00 ylo yhi
-6.2000000000000000e+01 6.2000000000000000e+01 zlo zhi

Masses

1 12.011
2 1.008
3 16
4 1.008
5 55.845
6 15.999

Pair Coeffs # lj/cut/tip4p/long

1 0.07 3.55
2 0.03 2.42
3 0.1852 3.1589
4 0 0
5 9.0298e-06 4.9059
6 0.1554 3.166

Bond Coeffs # harmonic

1 469 1.4
2 367 1.08
3 0 0.9572

Angle Coeffs # harmonic

1 35 120
2 63 120
3 0 104.52

Dihedral Coeffs # opls

1 0 7.25 0 0
2 0 7.25 0 0
3 0 7.25 0 0

Improper Coeffs # harmonic

1 5 180
2 5 180

Atoms # full

2830 2 5 2.0000000000000000e+00 -3.0068912578261795e+01 -7.6249448322166584e+00 -4.7577796489412698e+01 -24 1 0
2832 2 6 -2.0000000000000000e+00 -3.0068912578261795e+01 -5.5411720724480933e+00 -4.7640004308542430e+01 -24 1 0
2470 2 5 2.0000000000000000e+00 -3.0068912578261795e+01 -3.4178617425333404e+00 -4.7654719717114297e+01 -24 0 0
2472 2 6 -2.0000000000000000e+00 -3.0068912578261795e+01 -1.1767726143710384e+00 -4.7621195151275174e+01 -24 0 0
2837 2 6 -2.0000000000000000e+00 -2.7983912578253143e+01 -7.6507837258211806e+00 -4.7614510255248717e+01 -24 1 0
2839 2 5 2.0000000000000000e+00 -2.7983912578253143e+01 -5.5602976144996745e+00 -4.7661705287873453e+01 -24 1 0
2477 2 6 -2.0000000000000000e+00 -2.7983912578253143e+01 -3.3897073704751164e+00 -4.7649706485843765e+01 -24 0 0
2479 2 5 2.0000000000000000e+00 -2.7983912578253143e+01 -1.2193433507024589e+00 -4.7606411467946529e+01 -24 0 0
2838 2 5 2.0000000000000000e+00 -2.5898912578243433e+01 -7.5869158613196106e+00 -4.7516331644754516e+01 -24 1 0
2840 2 6 -2.0000000000000000e+00 -2.5898912578243433e+01 -5.5541244796426961e+00 -4.7674807830977983e+01 -24 1 0
2478 2 5 2.0000000000000000e+00 -2.5898912578243433e+01 -3.4074521645419864e+00 -4.7615136563291074e+01 -24 0 0
2480 2 6 -2.0000000000000000e+00 -2.5898912578243433e+01 -1.2925430986170254e+00 -4.7659189617354293e+01 -24 0 0
2845 2 6 -2.0000000000000000e+00 -2.3813912578237378e+01 -7.6348122263436906e+00 -4.7566446253728792e+01 -24 1 0
2847 2 5 2.0000000000000000e+00 -2.3813912578237378e+01 -5.4518347283889437e+00 -4.7615898849003763e+01 -24 1 0
2485 2 6 -2.0000000000000000e+00 -2.3813912578237378e+01 -3.3943157435915539e+00 -4.7606104294351226e+01 -24 0 0
2487 2 5 2.0000000000000000e+00 -2.3813912578237378e+01 -1.2569983668238105e+00 -4.7600167735124600e+01 -24 0 0
2848 2 6 -2.0000000000000000e+00 -2.1728912578232539e+01 -5.5239132559402275e+00 -4.7607301231204993e+01 -24 1 0
2846 2 5 2.0000000000000000e+00 -2.1728912578232539e+01 -7.6158325682301093e+00 -4.7603076342700817e+01 -24 1 0
2486 2 5 2.0000000000000000e+00 -2.1728912578232539e+01 -3.3096162542701353e+00 -4.7594466604458646e+01 -24 0 0
2488 2 6 -2.0000000000000000e+00 -2.1728912578232539e+01 -1.2677380642817278e+00 -4.7607921357911131e+01 -24 0 0
2853 2 6 -2.0000000000000000e+00 -1.9643912578223521e+01 -7.6282584941409874e+00 -4.7566458657490926e+01 -24 1 0
2855 2 5 2.0000000000000000e+00 -1.9643912578223521e+01 -5.5462830572798740e+00 -4.7587037973587336e+01 -24 1 0
2493 2 6 -2.0000000000000000e+00 -1.9643912578223521e+01 -3.3414399242078634e+00 -4.7563381821873328e+01 -24 0 0
2495 2 5 2.0000000000000000e+00 -1.9643912578223521e+01 -1.2581220298926519e+00 -4.7661867002448645e+01 -24 0 0
2854 2 5 2.0000000000000000e+00 -1.7558912578213839e+01 -7.5987845790876705e+00 -4.7611440183849048e+01 -24 1 0
2856 2 6 -2.0000000000000000e+00 -1.7558912578213839e+01 -5.5386585554557923e+00 -4.7568795277433239e+01 -24 1 0
2494 2 5 2.0000000000000000e+00 -1.7558912578213839e+01 -3.4032211854828711e+00 -4.7605034109835636e+01 -24 0 0
2496 2 6 -2.0000000000000000e+00 -1.7558912578213839e+01 -1.2075703013172090e+00 -4.7615794810810812e+01 -24 0 0
2861 2 6 -2.0000000000000000e+00 -1.5473912578206599e+01 -7.6540694798666484e+00 -4.7665963486557047e+01 -24 1 0
2863 2 5 2.0000000000000000e+00 -1.5473912578206599e+01 -5.4574300861811764e+00 -4.7586332958945277e+01 -24 1 0
2501 2 6 -2.0000000000000000e+00 -1.5473912578206599e+01 -3.3159927716878186e+00 -4.7654635629980845e+01 -24 0 0
2503 2 5 2.0000000000000000e+00 -1.5473912578206599e+01 -1.1797060231698338e+00 -4.7589882458490671e+01 -24 0 0
2862 2 5 2.0000000000000000e+00 -1.3388912578206867e+01 -7.5585286660378799e+00 -4.7660216077460134e+01 -24 1 0
2864 2 6 -2.0000000000000000e+00 -1.3388912578206867e+01 -5.4954513529077609e+00 -4.7598009579644632e+01 -24 1 0
2502 2 5 2.0000000000000000e+00 -1.3388912578206867e+01 -3.2894498895987216e+00 -4.7583361673377290e+01 -24 0 0
2504 2 6 -2.0000000000000000e+00 -1.3388912578206867e+01 -1.2318693182836638e+00 -4.7543858384211482e+01 -24 0 0
2869 2 6 -2.0000000000000000e+00 -1.1303912578216545e+01 -7.6702471876928406e+00 -4.7636100496069581e+01 -24 1 0
2871 2 5 2.0000000000000000e+00 -1.1303912578216545e+01 -5.5518546635946064e+00 -4.7608784460242511e+01 -24 1 0
2509 2 6 -2.0000000000000000e+00 -1.1303912578216545e+01 -3.2532448863500587e+00 -4.7605309475776401e+01 -24 0 0
2511 2 5 2.0000000000000000e+00 -1.1303912578216545e+01 -1.2497887855942145e+00 -4.7621839505165148e+01 -24 0 0
2870 2 5 2.0000000000000000e+00 -9.2189125782262238e+00 -7.6652178853846982e+00 -4.7525686696224135e+01 -24 1 0
2872 2 6 -2.0000000000000000e+00 -9.2189125782262238e+00 -5.4715699869955321e+00 -4.7592955256335529e+01 -24 1 0
2510 2 5 2.0000000000000000e+00 -9.2189125782262238e+00 -3.3298358506563073e+00 -4.7530728030393341e+01 -24 0 0
2512 2 6 -2.0000000000000000e+00 -9.2189125782262238e+00 -1.2181467823409025e+00 -4.7564970434928533e+01 -24 0 0
2877 2 6 -2.0000000000000000e+00 -7.1339125782338906e+00 -7.6545375865975247e+00 -4.7523326430973221e+01 -24 1 0
2879 2 5 2.0000000000000000e+00 -7.1339125782338906e+00 -5.4825874543582866e+00 -4.7502678367662249e+01 -24 1 0
2517 2 6 -2.0000000000000000e+00 -7.1339125782338906e+00 -3.3887991440700169e+00 -4.7508523925227429e+01 -24 0 0
2519 2 5 2.0000000000000000e+00 -7.1339125782338906e+00 -1.2570871140634599e+00 -4.7552712356299793e+01 -24 0 0
2878 2 5 2.0000000000000000e+00 -5.0489125782387294e+00 -7.6410205370095046e+00 -4.7530887430697121e+01 -24 1 0
2880 2 6 -2.0000000000000000e+00 -5.0489125782387294e+00 -5.5474205458552825e+00 -4.7506192211665109e+01 -24 1 0
2518 2 5 2.0000000000000000e+00 -5.0489125782387294e+00 -3.4590471077860103e+00 -4.7506031882810724e+01 -24 0 0
2520 2 6 -2.0000000000000000e+00 -5.0489125782387294e+00 -1.2658227518868534e+00 -4.7523506733466903e+01 -24 0 0
2765 2 6 -2.0000000000000000e+00 -2.9639125782447779e+00 -7.7096853205801281e+00 -4.7523981631418465e+01 -25 1 0
2767 2 5 2.0000000000000000e+00 -2.9639125782447779e+00 -5.5079459770003991e+00 -4.7532449485860191e+01 -25 1 0
2405 2 6 -2.0000000000000000e+00 -2.9639125782447779e+00 -3.4388225570360929e+00 -4.7549614838035659e+01 -25 0 0
2407 2 5 2.0000000000000000e+00 -2.9639125782447779e+00 -1.2362213567736684e+00 -4.7559807893188157e+01 -25 0 0
2766 2 5 2.0000000000000000e+00 -8.7891257825142011e-01 -7.6437324889737397e+00 -4.7468857972586775e+01 -25 1 0
2768 2 6 -2.0000000000000000e+00 -8.7891257825142011e-01 -5.5483252063310164e+00 -4.7500739376209964e+01 -25 1 0
2406 2 5 2.0000000000000000e+00 -8.7891257825142011e-01 -3.3924448758778847e+00 -4.7500587238554395e+01 -25 0 0
2408 2 6 -2.0000000000000000e+00 -8.7891257825142011e-01 -1.1654516864669302e+00 -4.7507999626048779e+01 -25 0 0
2712 2 6 -2.0000000000000000e+00 -3.0068912578261795e+01 7.2900343804108214e+00 -4.7603430799987237e+01 -24 0 0
2710 2 5 2.0000000000000000e+00 -3.0068912578261795e+01 5.1380724991846138e+00 -4.7613481538479441e+01 -24 0 0
2592 2 6 -2.0000000000000000e+00 -3.0068912578261795e+01 3.0479247727456373e+00 -4.7648927310135612e+01 -24 0 0
2590 2 5 2.0000000000000000e+00 -3.0068912578261795e+01 9.2980246890314011e-01 -4.7683835889917802e+01 -24 0 0
2719 2 5 2.0000000000000000e+00 -2.7983912578253143e+01 7.3207840011797050e+00 -4.7575922512781403e+01 -24 0 0
2717 2 6 -2.0000000000000000e+00 -2.7983912578253143e+01 5.1243509514040708e+00 -4.7619487175118664e+01 -24 0 0
2599 2 5 2.0000000000000000e+00 -2.7983912578253143e+01 2.9659282873985133e+00 -4.7613691381223020e+01 -24 0 0
2597 2 6 -2.0000000000000000e+00 -2.7983912578253143e+01 8.3053451385885990e-01 -4.7625508784778525e+01 -24 0 0
2720 2 6 -2.0000000000000000e+00 -2.5898912578243433e+01 7.2844873621939632e+00 -4.7529980581734584e+01 -24 0 0
2718 2 5 2.0000000000000000e+00 -2.5898912578243433e+01 5.1743181323487377e+00 -4.7594691433906931e+01 -24 0 0
2600 2 6 -2.0000000000000000e+00 -2.5898912578243433e+01 2.9026972086683425e+00 -4.7647898034933654e+01 -24 0 0
2598 2 5 2.0000000000000000e+00 -2.5898912578243433e+01 8.6865423089089333e-01 -4.7651054156949357e+01 -24 0 0
2727 2 5 2.0000000000000000e+00 -2.3813912578237378e+01 7.3042544219678858e+00 -4.7554402622900582e+01 -24 0 0
2725 2 6 -2.0000000000000000e+00 -2.3813912578237378e+01 5.1208145318153431e+00 -4.7597006936488121e+01 -24 0 0
2607 2 5 2.0000000000000000e+00 -2.3813912578237378e+01 2.9806995170827584e+00 -4.7620624685873381e+01 -24 0 0
2605 2 6 -2.0000000000000000e+00 -2.3813912578237378e+01 8.1520173624452807e-01 -4.7608739503176430e+01 -24 0 0
2728 2 6 -2.0000000000000000e+00 -2.1728912578232539e+01 7.3265622186869841e+00 -4.7623639639879357e+01 -24 0 0
2726 2 5 2.0000000000000000e+00 -2.1728912578232539e+01 5.1113967568768395e+00 -4.7586554186848488e+01 -24 0 0
2606 2 5 2.0000000000000000e+00 -2.1728912578232539e+01 9.1194326783344037e-01 -4.7553717094310350e+01 -24 0 0
2608 2 6 -2.0000000000000000e+00 -2.1728912578232539e+01 2.9540295105114542e+00 -4.7629411222535964e+01 -24 0 0
2735 2 5 2.0000000000000000e+00 -1.9643912578223521e+01 7.2683341094495395e+00 -4.7662755066185092e+01 -24 0 0
2733 2 6 -2.0000000000000000e+00 -1.9643912578223521e+01 5.1278521312771641e+00 -4.7555320366397872e+01 -24 0 0
2615 2 5 2.0000000000000000e+00 -1.9643912578223521e+01 2.9494013078178809e+00 -4.7587540547161709e+01 -24 0 0
2613 2 6 -2.0000000000000000e+00 -1.9643912578223521e+01 9.0846788966865855e-01 -4.7641908675430152e+01 -24 0 0
2736 2 6 -2.0000000000000000e+00 -1.7558912578213839e+01 7.2345099934418720e+00 -4.7688191832214009e+01 -24 0 0
2734 2 5 2.0000000000000000e+00 -1.7558912578213839e+01 5.1279777159957289e+00 -4.7657649765516375e+01 -24 0 0
2616 2 6 -2.0000000000000000e+00 -1.7558912578213839e+01 2.9683908433902459e+00 -4.7660670422617514e+01 -24 0 0
2614 2 5 2.0000000000000000e+00 -1.7558912578213839e+01 9.1373849940191454e-01 -4.7684150596765363e+01 -24 0 0
2743 2 5 2.0000000000000000e+00 -1.5473912578206599e+01 7.2764925005347134e+00 -4.7650838632511217e+01 -24 0 0
2741 2 6 -2.0000000000000000e+00 -1.5473912578206599e+01 5.1493511828272647e+00 -4.7674297670837745e+01 -24 0 0
2623 2 5 2.0000000000000000e+00 -1.5473912578206599e+01 3.0391836621335995e+00 -4.7678839843292842e+01 -24 0 0
2621 2 6 -2.0000000000000000e+00 -1.5473912578206599e+01 8.9483045724118160e-01 -4.7646648725612593e+01 -24 0 0
2744 2 6 -2.0000000000000000e+00 -1.3388912578206867e+01 7.2159428517322359e+00 -4.7653325509616707e+01 -24 0 0
2742 2 5 2.0000000000000000e+00 -1.3388912578206867e+01 5.1194894204086028e+00 -4.7649462217579284e+01 -24 0 0
2624 2 6 -2.0000000000000000e+00 -1.3388912578206867e+01 3.0302014172264884e+00 -4.7689145618571317e+01 -24 0 0
2622 2 5 2.0000000000000000e+00 -1.3388912578206867e+01 9.3463556666545877e-01 -4.7617992478909173e+01 -24 0 0
2751 2 5 2.0000000000000000e+00 -1.1303912578216545e+01 7.2507558133439396e+00 -4.7645788705102198e+01 -24 0 0
2749 2 6 -2.0000000000000000e+00 -1.1303912578216545e+01 5.1906250777445910e+00 -4.7652095760841142e+01 -24 0 0
2631 2 5 2.0000000000000000e+00 -1.1303912578216545e+01 2.9903296883528756e+00 -4.7600491602521721e+01 -24 0 0
2629 2 6 -2.0000000000000000e+00 -1.1303912578216545e+01 9.2697053231729565e-01 -4.7617349671288238e+01 -24 0 0
2752 2 6 -2.0000000000000000e+00 -9.2189125782262238e+00 7.2747974358623777e+00 -4.7634864940282206e+01 -24 0 0
2630 2 5 2.0000000000000000e+00 -9.2189125782262238e+00 8.3811607666204757e-01 -4.7559416626690748e+01 -24 0 0
2750 2 5 2.0000000000000000e+00 -9.2189125782262238e+00 5.1377013884152252e+00 -4.7636346041097944e+01 -24 0 0
2632 2 6 -2.0000000000000000e+00 -9.2189125782262238e+00 3.0558630346376741e+00 -4.7637468800725706e+01 -24 0 0
2759 2 5 2.0000000000000000e+00 -7.1339125782338906e+00 7.2356556882899641e+00 -4.7552584265315588e+01 -24 0 0
2757 2 6 -2.0000000000000000e+00 -7.1339125782338906e+00 5.1109004607542046e+00 -4.7584913480089810e+01 -24 0 0
2639 2 5 2.0000000000000000e+00 -7.1339125782338906e+00 2.9941307985074546e+00 -4.7531563210033120e+01 -24 0 0
2637 2 6 -2.0000000000000000e+00 -7.1339125782338906e+00 8.6098042158256594e-01 -4.7611652797279092e+01 -24 0 0
2760 2 6 -2.0000000000000000e+00 -5.0489125782387294e+00 7.2466788227195291e+00 -4.7538970831036757e+01 -24 0 0
2758 2 5 2.0000000000000000e+00 -5.0489125782387294e+00 5.1406961283450592e+00 -4.7530665292702601e+01 -24 0 0
2640 2 6 -2.0000000000000000e+00 -5.0489125782387294e+00 2.9665539647606480e+00 -4.7595379186099485e+01 -24 0 0
2638 2 5 2.0000000000000000e+00 -5.0489125782387294e+00 8.4001882174183717e-01 -4.7585856208691517e+01 -24 0 0
2647 2 5 2.0000000000000000e+00 -2.9639125782447779e+00 7.2264299311616842e+00 -4.7567049160198842e+01 -25 0 0
2645 2 6 -2.0000000000000000e+00 -2.9639125782447779e+00 5.1156555534094101e+00 -4.7511721143580424e+01 -25 0 0
2527 2 5 2.0000000000000000e+00 -2.9639125782447779e+00 3.0579848877978453e+00 -4.7526522635590624e+01 -25 0 0
2525 2 6 -2.0000000000000000e+00 -2.9639125782447779e+00 9.0295703295834129e-01 -4.7507671989711369e+01 -25 0 0
2648 2 6 -2.0000000000000000e+00 -8.7891257825142011e-01 7.2654088903636289e+00 -4.7560394847492041e+01 -25 0 0
2646 2 5 2.0000000000000000e+00 -8.7891257825142011e-01 5.1444547784004380e+00 -4.7562854055648906e+01 -25 0 0
2528 2 6 -2.0000000000000000e+00 -8.7891257825142011e-01 3.0523577677320750e+00 -4.7575556158925160e+01 -25 0 0
2526 2 5 2.0000000000000000e+00 -8.7891257825142011e-01 9.2866571248368301e-01 -4.7578909868982109e+01 -25 0 0
2346 2 6 -2.0000000000000000e+00 -3.0046628959606675e+01 -7.6480890916161295e+00 -4.1413036611680411e+01 -24 1 0
2350 2 5 2.0000000000000000e+00 -3.0068912578261795e+01 -7.6683813318842100e+00 -4.3521931543715510e+01 -24 1 0
2826 2 6 -2.0000000000000000e+00 -3.0068912578261795e+01 -7.6685085131602886e+00 -4.5528209028366184e+01 -24 1 0
1870 2 5 2.0000000000000000e+00 -3.0050235198165925e+01 -7.6814734778826859e+00 -3.9352641835652328e+01 -24 1 0
2828 2 5 2.0000000000000000e+00 -3.0068912578261795e+01 -5.5695455915958600e+00 -4.5568697601087521e+01 -24 1 0
1872 2 6 -2.0000000000000000e+00 -3.0081629289126230e+01 -5.5910194425037050e+00 -3.9386463375659382e+01 -24 1 0
2348 2 5 2.0000000000000000e+00 -3.0108099364144838e+01 -5.5281872584678302e+00 -4.1449002994252801e+01 -24 1 0
2352 2 6 -2.0000000000000000e+00 -3.0068912578261795e+01 -5.5333831852425757e+00 -4.3513048657950222e+01 -24 1 0
1986 2 6 -2.0000000000000000e+00 -3.0050365496551475e+01 -3.3689665530760511e+00 -4.1449390741431330e+01 -24 0 0
1990 2 5 2.0000000000000000e+00 -3.0068912578261795e+01 -3.4524471381804052e+00 -4.3525084456139140e+01 -24 0 0
2466 2 6 -2.0000000000000000e+00 -3.0068912578261795e+01 -3.3449350908697904e+00 -4.5580319007775778e+01 -24 0 0
1510 2 5 2.0000000000000000e+00 -3.0074755388430802e+01 -3.3959062392405719e+00 -3.9377291196028843e+01 -24 0 0
1512 2 6 -2.0000000000000000e+00 -3.0052959273416015e+01 -1.2477208825730253e+00 -3.9401795918252326e+01 -24 0 0
1988 2 5 2.0000000000000000e+00 -3.0037391499646390e+01 -1.2323954261352248e+00 -4.1416002448471730e+01 -24 0 0
2468 2 5 2.0000000000000000e+00 -3.0068912578261795e+01 -1.1812199073315088e+00 -4.5577840873942343e+01 -24 0 0
1992 2 6 -2.0000000000000000e+00 -3.0068912578261795e+01 -1.2638771413158434e+00 -4.3489817392274695e+01 -24 0 0
1877 2 6 -2.0000000000000000e+00 -2.7976222202286618e+01 -7.6402760367187161e+00 -3.9376215953186268e+01 -24 1 0
2353 2 5 2.0000000000000000e+00 -2.8010523186849909e+01 -7.6307787153129096e+00 -4.1487457418346665e+01 -24 1 0
1879 2 5 2.0000000000000000e+00 -2.7982249564332381e+01 -5.5616536147478071e+00 -3.9373518788209601e+01 -24 1 0
2357 2 6 -2.0000000000000000e+00 -2.7983912578253143e+01 -7.6968897321082235e+00 -4.3530493937563286e+01 -24 1 0
2833 2 5 2.0000000000000000e+00 -2.7983912578253143e+01 -7.6859182631668510e+00 -4.5541191664362273e+01 -24 1 0
2355 2 6 -2.0000000000000000e+00 -2.8005184079997523e+01 -5.5416879706546771e+00 -4.1482943596239245e+01 -24 1 0
2359 2 5 2.0000000000000000e+00 -2.7983912578253143e+01 -5.6050628009352419e+00 -4.3492836907129814e+01 -24 1 0
2835 2 6 -2.0000000000000000e+00 -2.7983912578253143e+01 -5.5634291953248480e+00 -4.5620480154855237e+01 -24 1 0
1993 2 5 2.0000000000000000e+00 -2.8014361108567403e+01 -3.4324062968727000e+00 -4.1436417293097328e+01 -24 0 0
1517 2 6 -2.0000000000000000e+00 -2.8004336268308670e+01 -3.4459081732417540e+00 -3.9401726424280128e+01 -24 0 0
1997 2 6 -2.0000000000000000e+00 -2.7983912578253143e+01 -3.4432231897981147e+00 -4.3542240909650857e+01 -24 0 0
2473 2 5 2.0000000000000000e+00 -2.7983912578253143e+01 -3.3934719396448370e+00 -4.5582183961229632e+01 -24 0 0
1999 2 5 2.0000000000000000e+00 -2.7983912578253143e+01 -1.2505040618412750e+00 -4.3482391145303836e+01 -24 0 0
1519 2 5 2.0000000000000000e+00 -2.7996910360669720e+01 -1.3024798580045058e+00 -3.9409920080448813e+01 -24 0 0
2475 2 6 -2.0000000000000000e+00 -2.7983912578253143e+01 -1.2172467527480055e+00 -4.5523650005635325e+01 -24 0 0
1995 2 6 -2.0000000000000000e+00 -2.7946500183239223e+01 -1.3291696642275466e+00 -4.1473913894529034e+01 -24 0 0
1880 2 6 -2.0000000000000000e+00 -2.5872210332000833e+01 -5.5406093682493331e+00 -3.9405432429795944e+01 -24 1 0
2356 2 5 2.0000000000000000e+00 -2.5905980137734645e+01 -5.5737847660761801e+00 -4.1427146786154886e+01 -24 1 0
2354 2 6 -2.0000000000000000e+00 -2.5920883413333300e+01 -7.6668758860000743e+00 -4.1421185052057503e+01 -24 1 0
1878 2 5 2.0000000000000000e+00 -2.5964349061227622e+01 -7.7396012163696870e+00 -3.9366368849134851e+01 -24 1 0
2358 2 5 2.0000000000000000e+00 -2.5898912578243433e+01 -7.7067612983477716e+00 -4.3522971823299507e+01 -24 1 0
2834 2 6 -2.0000000000000000e+00 -2.5898912578243433e+01 -7.6495117858522823e+00 -4.5546749837312667e+01 -24 1 0
2360 2 6 -2.0000000000000000e+00 -2.5898912578243433e+01 -5.5246876820188779e+00 -4.3523440192790481e+01 -24 1 0
2836 2 5 2.0000000000000000e+00 -2.5898912578243433e+01 -5.4497097321804926e+00 -4.5557236575348135e+01 -24 1 0
1518 2 5 2.0000000000000000e+00 -2.5927737098095392e+01 -3.4214576854420984e+00 -3.9386186376965313e+01 -24 0 0
1998 2 5 2.0000000000000000e+00 -2.5898912578243433e+01 -3.4148450342855656e+00 -4.3499766726772414e+01 -24 0 0
1994 2 6 -2.0000000000000000e+00 -2.5896219393458928e+01 -3.4592545924254732e+00 -4.1465873619802728e+01 -24 0 0
2474 2 6 -2.0000000000000000e+00 -2.5898912578243433e+01 -3.3914816786874051e+00 -4.5605479645583948e+01 -24 0 0
2000 2 6 -2.0000000000000000e+00 -2.5898912578243433e+01 -1.2736017164645157e+00 -4.3487413139634249e+01 -24 0 0
1996 2 5 2.0000000000000000e+00 -2.5854107956870646e+01 -1.2329011789861342e+00 -4.1435343624615776e+01 -24 0 0
2476 2 5 2.0000000000000000e+00 -2.5898912578243433e+01 -1.3069979377024687e+00 -4.5572050186541496e+01 -24 0 0
1520 2 6 -2.0000000000000000e+00 -2.5967415644807790e+01 -1.2700788767145614e+00 -3.9477238961220763e+01 -24 0 0
2001 2 5 2.0000000000000000e+00 -2.3864963992947402e+01 -3.4100958466180096e+00 -4.1406335826754308e+01 -24 0 0
1885 2 6 -2.0000000000000000e+00 -2.3854079189636050e+01 -7.6885771933681761e+00 -3.9348129998301978e+01 -24 1 0
1887 2 5 2.0000000000000000e+00 -2.3834513969895866e+01 -5.5382857180767742e+00 -3.9365664487782517e+01 -24 1 0
2361 2 5 2.0000000000000000e+00 -2.3796604014337813e+01 -7.7087764093396931e+00 -4.1441223489382224e+01 -24 1 0
2365 2 6 -2.0000000000000000e+00 -2.3813912578237378e+01 -7.6610886505773887e+00 -4.3476443720550833e+01 -24 1 0
2841 2 5 2.0000000000000000e+00 -2.3813912578237378e+01 -7.5885655563395975e+00 -4.5519263771142114e+01 -24 1 0
2367 2 5 2.0000000000000000e+00 -2.3813912578237378e+01 -5.5580862426013251e+00 -4.3455021130129651e+01 -24 1 0
2843 2 6 -2.0000000000000000e+00 -2.3813912578237378e+01 -5.4919677313222293e+00 -4.5542413654456176e+01 -24 1 0
2363 2 6 -2.0000000000000000e+00 -2.3792069199906930e+01 -5.5623635576363553e+00 -4.1398069812976310e+01 -24 1 0
1525 2 6 -2.0000000000000000e+00 -2.3882123138092279e+01 -3.4030296099654875e+00 -3.9321253313248029e+01 -24 0 0
2005 2 6 -2.0000000000000000e+00 -2.3813912578237378e+01 -3.4319610683826594e+00 -4.3508637643115293e+01 -24 0 0
2481 2 5 2.0000000000000000e+00 -2.3813912578237378e+01 -3.3902838620360507e+00 -4.5542136116420124e+01 -24 0 0
2003 2 6 -2.0000000000000000e+00 -2.3829210922536152e+01 -1.3015453711182985e+00 -4.1473572732818802e+01 -24 0 0
2007 2 5 2.0000000000000000e+00 -2.3813912578237378e+01 -1.2969220807513304e+00 -4.3480370961130831e+01 -24 0 0
2483 2 6 -2.0000000000000000e+00 -2.3813912578237378e+01 -1.2917927099342170e+00 -4.5519706364475752e+01 -24 0 0
1527 2 5 2.0000000000000000e+00 -2.3780639045958786e+01 -1.2166406037502495e+00 -3.9408948036643508e+01 -24 0 0
1526 2 5 2.0000000000000000e+00 -2.1707191686186874e+01 -3.4118951890721836e+00 -3.9389171588503253e+01 -24 0 0
2366 2 5 2.0000000000000000e+00 -2.1728912578232539e+01 -7.6333844176112873e+00 -4.3483315604128073e+01 -24 1 0
2368 2 6 -2.0000000000000000e+00 -2.1728912578232539e+01 -5.5314083139362760e+00 -4.3485147425464881e+01 -24 1 0
1886 2 5 2.0000000000000000e+00 -2.1731164519148425e+01 -7.5944504898861922e+00 -3.9436922117258391e+01 -24 1 0
2362 2 6 -2.0000000000000000e+00 -2.1691015907430550e+01 -7.6285770100812753e+00 -4.1461112432235034e+01 -24 1 0
1888 2 6 -2.0000000000000000e+00 -2.1713198034200637e+01 -5.5017091354419296e+00 -3.9384499623857899e+01 -24 1 0
2844 2 5 2.0000000000000000e+00 -2.1728912578232539e+01 -5.5427669146430860e+00 -4.5527419635847025e+01 -24 1 0
2364 2 5 2.0000000000000000e+00 -2.1720503505363645e+01 -5.4759509154141437e+00 -4.1394469042369451e+01 -24 1 0
2842 2 6 -2.0000000000000000e+00 -2.1728912578232539e+01 -7.6203735838869884e+00 -4.5548511710737898e+01 -24 1 0
2482 2 6 -2.0000000000000000e+00 -2.1728912578232539e+01 -3.3687387547460284e+00 -4.5480543376951019e+01 -24 0 0
2002 2 6 -2.0000000000000000e+00 -2.1727828341694146e+01 -3.4044927116481656e+00 -4.1395381028733759e+01 -24 0 0
2006 2 5 2.0000000000000000e+00 -2.1728912578232539e+01 -3.4389584059496716e+00 -4.3445496366368971e+01 -24 0 0
2004 2 5 2.0000000000000000e+00 -2.1715566961179064e+01 -1.3133609206452805e+00 -4.1422728103244829e+01 -24 0 0
2484 2 5 2.0000000000000000e+00 -2.1728912578232539e+01 -1.2407674866607361e+00 -4.5524959953104478e+01 -24 0 0
2008 2 6 -2.0000000000000000e+00 -2.1728912578232539e+01 -1.2718025935689012e+00 -4.3475205216050909e+01 -24 0 0
1528 2 6 -2.0000000000000000e+00 -2.1682684204562538e+01 -1.2527984188419281e+00 -3.9367417455525633e+01 -24 0 0
1893 2 6 -2.0000000000000000e+00 -1.9623400088478537e+01 -7.7086117544403345e+00 -3.9454396121127580e+01 -24 1 0
1533 2 6 -2.0000000000000000e+00 -1.9617401164344312e+01 -3.4001639668043739e+00 -3.9334287693127706e+01 -24 0 0
2009 2 5 2.0000000000000000e+00 -1.9605144135128974e+01 -3.3583893466493677e+00 -4.1472656262826732e+01 -24 0 0
2371 2 6 -2.0000000000000000e+00 -1.9617920049846202e+01 -5.4935918038547804e+00 -4.1456714592886698e+01 -24 1 0
2369 2 5 2.0000000000000000e+00 -1.9597066775908704e+01 -7.6454082054120152e+00 -4.1471711736395719e+01 -24 1 0
2851 2 6 -2.0000000000000000e+00 -1.9643912578223521e+01 -5.5865927434505407e+00 -4.5583398583630903e+01 -24 1 0
1895 2 5 2.0000000000000000e+00 -1.9603916040698220e+01 -5.4983802854884232e+00 -3.9391910551751259e+01 -24 1 0
2373 2 6 -2.0000000000000000e+00 -1.9643912578223521e+01 -7.6755990840482093e+00 -4.3462326981714021e+01 -24 1 0
2849 2 5 2.0000000000000000e+00 -1.9643912578223521e+01 -7.6707972514183362e+00 -4.5553239813229638e+01 -24 1 0
2375 2 5 2.0000000000000000e+00 -1.9643912578223521e+01 -5.5397903933679027e+00 -4.3536180166077266e+01 -24 1 0
2489 2 5 2.0000000000000000e+00 -1.9643912578223521e+01 -3.3449561364614766e+00 -4.5525544725677086e+01 -24 0 0
2013 2 6 -2.0000000000000000e+00 -1.9643912578223521e+01 -3.3786093515343363e+00 -4.3510022568239975e+01 -24 0 0
2011 2 6 -2.0000000000000000e+00 -1.9669657355533364e+01 -1.3064100843955733e+00 -4.1465334220022072e+01 -24 0 0
1535 2 5 2.0000000000000000e+00 -1.9629973081463255e+01 -1.2267506935522410e+00 -3.9373272993199301e+01 -24 0 0
2491 2 6 -2.0000000000000000e+00 -1.9643912578223521e+01 -1.2038152170116472e+00 -4.5580651792856514e+01 -24 0 0
2015 2 5 2.0000000000000000e+00 -1.9643912578223521e+01 -1.2857003417864865e+00 -4.3496570962652264e+01 -24 0 0
1894 2 5 2.0000000000000000e+00 -1.7544978627530401e+01 -7.6358617096532555e+00 -3.9426710863171202e+01 -24 1 0
2376 2 6 -2.0000000000000000e+00 -1.7558912578213839e+01 -5.4676645455208028e+00 -4.3478143035733765e+01 -24 1 0
2852 2 5 2.0000000000000000e+00 -1.7558912578213839e+01 -5.5152649379740302e+00 -4.5512376267596849e+01 -24 1 0
2850 2 6 -2.0000000000000000e+00 -1.7558912578213839e+01 -7.6242919642231071e+00 -4.5515080102130511e+01 -24 1 0
2374 2 5 2.0000000000000000e+00 -1.7558912578213839e+01 -7.6369778366959995e+00 -4.3469111616025295e+01 -24 1 0
1896 2 6 -2.0000000000000000e+00 -1.7503865419621366e+01 -5.4869654847945553e+00 -3.9374681069592185e+01 -24 1 0
1534 2 5 2.0000000000000000e+00 -1.7560207527708233e+01 -3.3712491492510441e+00 -3.9396581851926605e+01 -24 0 0
2490 2 6 -2.0000000000000000e+00 -1.7558912578213839e+01 -3.3756354169618845e+00 -4.5548254524396768e+01 -24 0 0
2014 2 5 2.0000000000000000e+00 -1.7558912578213839e+01 -3.3439150912723683e+00 -4.3516809685613268e+01 -24 0 0
1536 2 6 -2.0000000000000000e+00 -1.7596206054810164e+01 -1.2254457923670425e+00 -3.9329317715239227e+01 -24 0 0
2012 2 5 2.0000000000000000e+00 -1.7587536497294384e+01 -1.2765070049089879e+00 -4.1407257105809052e+01 -24 0 0
2016 2 6 -2.0000000000000000e+00 -1.7558912578213839e+01 -1.2377097015464655e+00 -4.3501746729694482e+01 -24 0 0
2492 2 5 2.0000000000000000e+00 -1.7558912578213839e+01 -1.2142341672617512e+00 -4.5574628375441080e+01 -24 0 0
2372 2 5 2.0000000000000000e+00 -1.7536974316853374e+01 -5.4540447633324360e+00 -4.1417363347119611e+01 -24 1 0
2370 2 6 -2.0000000000000000e+00 -1.7489998345234294e+01 -7.6148994834584931e+00 -4.1422580686084927e+01 -24 1 0
2010 2 6 -2.0000000000000000e+00 -1.7533991682646779e+01 -3.3644287980678560e+00 -4.1414123734701676e+01 -24 0 0
1903 2 5 2.0000000000000000e+00 -1.5436939499054519e+01 -5.4466722220651400e+00 -3.9361474662582779e+01 -24 1 0
2377 2 5 2.0000000000000000e+00 -1.5519843342528432e+01 -7.5849522990129241e+00 -4.1389760630482421e+01 -24 1 0
2383 2 5 2.0000000000000000e+00 -1.5473912578206599e+01 -5.5442312430190963e+00 -4.3510688944610870e+01 -24 1 0
2017 2 5 2.0000000000000000e+00 -1.5458928544502374e+01 -3.4124549407216733e+00 -4.1405955713736660e+01 -24 0 0
1901 2 6 -2.0000000000000000e+00 -1.5506318168546548e+01 -7.6262170103056777e+00 -3.9358520769070331e+01 -24 1 0
2497 2 5 2.0000000000000000e+00 -1.5473912578206599e+01 -3.3445263191639492e+00 -4.5546879201921293e+01 -24 0 0
2021 2 6 -2.0000000000000000e+00 -1.5473912578206599e+01 -3.3179863130569669e+00 -4.3518634162663687e+01 -24 0 0
1541 2 6 -2.0000000000000000e+00 -1.5516021533406718e+01 -3.3619027570369924e+00 -3.9381408086644136e+01 -24 0 0
2857 2 5 2.0000000000000000e+00 -1.5473912578206599e+01 -7.6106993884033844e+00 -4.5594389804124511e+01 -24 1 0
2859 2 6 -2.0000000000000000e+00 -1.5473912578206599e+01 -5.4769258234387630e+00 -4.5572439548611804e+01 -24 1 0
2381 2 6 -2.0000000000000000e+00 -1.5473912578206599e+01 -7.5765801603604785e+00 -4.3504394528742409e+01 -24 1 0
2499 2 6 -2.0000000000000000e+00 -1.5473912578206599e+01 -1.1405698161247975e+00 -4.5537506787960503e+01 -24 0 0
2023 2 5 2.0000000000000000e+00 -1.5473912578206599e+01 -1.1610692805042349e+00 -4.3495396285407004e+01 -24 0 0
2379 2 6 -2.0000000000000000e+00 -1.5409292754319528e+01 -5.5248553455931999e+00 -4.1442597607975031e+01 -24 1 0
1543 2 5 2.0000000000000000e+00 -1.5484466216033109e+01 -1.3011667994167486e+00 -3.9391471840556690e+01 -24 0 0
2019 2 6 -2.0000000000000000e+00 -1.5454623711161098e+01 -1.2924284043098706e+00 -4.1430914120101427e+01 -24 0 0
2380 2 5 2.0000000000000000e+00 -1.3376364964478784e+01 -5.4932628321430848e+00 -4.1484626915096257e+01 -24 1 0
2858 2 6 -2.0000000000000000e+00 -1.3388912578206867e+01 -7.5615994418785988e+00 -4.5596090148598890e+01 -24 1 0
2382 2 5 2.0000000000000000e+00 -1.3388912578206867e+01 -7.6686248717877739e+00 -4.3515449262922012e+01 -24 1 0
2860 2 5 2.0000000000000000e+00 -1.3388912578206867e+01 -5.5227217014108652e+00 -4.5523847741197727e+01 -24 1 0
2384 2 6 -2.0000000000000000e+00 -1.3388912578206867e+01 -5.5650010391750167e+00 -4.3534134079918395e+01 -24 1 0
2022 2 5 2.0000000000000000e+00 -1.3388912578206867e+01 -3.3764146629456429e+00 -4.3541909262370609e+01 -24 0 0
2498 2 6 -2.0000000000000000e+00 -1.3388912578206867e+01 -3.3481960392603685e+00 -4.5536986467924741e+01 -24 0 0
1904 2 6 -2.0000000000000000e+00 -1.3367989772902936e+01 -5.4560443246790609e+00 -3.9391295435452470e+01 -24 1 0
1542 2 5 2.0000000000000000e+00 -1.3385490046783190e+01 -3.3222941327379325e+00 -3.9356596211368021e+01 -24 0 0
1902 2 5 2.0000000000000000e+00 -1.3371499542157641e+01 -7.6454228664943367e+00 -3.9442504294155832e+01 -24 1 0
2018 2 6 -2.0000000000000000e+00 -1.3327487491216077e+01 -3.3432908276690716e+00 -4.1499377525825778e+01 -24 0 0
2378 2 6 -2.0000000000000000e+00 -1.3380277019688291e+01 -7.6617306885325975e+00 -4.1426933356992770e+01 -24 1 0