31
Atoms. Timestep: 10120
3 -2.99843 12.0886 14.3289
5 -4.08852 12.0007 14.0275
5 -2.40043 11.4855 13.5769
6 -2.69048 13.2629 14.1389
7 -2.85105 13.5132 13.2219
3 -2.89692 11.0934 15.8466
5 -3.57581 11.6568 16.5629
5 -1.83131 11.2335 16.2042
4 -3.20625 9.87335 16.1315
3 -2.50913 9.18969 16.8922
5 -3.2395 8.87552 17.7144
5 -1.7069 9.81398 17.4022
3 -1.7913 7.77858 16.4372
5 -2.61231 7.1166 16.0123
5 -1.4494 7.29703 17.4145
4 -0.804764 7.73246 15.7291
3 -0.713177 6.82503 14.8891
5 -1.63109 6.16901 15.0254
5 0.183256 6.22327 15.249
3 -0.493824 6.96149 13.1892
5 -1.46954 6.59639 12.7328
5 -0.481892 8.09082 13.0191
4 0.488249 6.55701 12.4662
3 0.572897 5.38733 11.8456
5 0.487104 5.74561 10.7699
5 -0.374324 4.8167 12.0847
3 1.86082 4.0477 11.6752
5 2.06096 3.76196 12.7537
5 2.76886 4.62373 11.3167
6 1.87287 2.97781 11.0403
7 2.70721 2.51047 11.1659
