ITEM: TIMESTEP
10120
ITEM: NUMBER OF ATOMS
31
ITEM: BOX BOUNDS ss ss ss
-4.0915249812483667e+00 2.7718610353898137e+00
2.5074697193888542e+00 1.3516181362916313e+01
1.0766851648706020e+01 1.7717380760678509e+01
ITEM: ATOMS id type xs ys zs
26 5 0.541599 0.209764 0.18961
25 5 0.667109 0.294143 0.000431622
28 5 0.896421 0.113955 0.285858
29 5 0.999563 0.192235 0.0791109
31 7 0.99058 0.000272511 0.0574098
27 3 0.867261 0.13991 0.130689
24 3 0.67961 0.261599 0.155198
30 6 0.869017 0.0427244 0.0393463
21 5 0.382026 0.371426 0.282851
22 5 0.525926 0.507176 0.324035
20 3 0.524187 0.40459 0.348517
23 4 0.667276 0.367848 0.244489
5 7 0.180738 0.999727 0.353221
3 5 0.246393 0.815535 0.404289
4 6 0.204134 0.976989 0.485144
18 5 0.358487 0.332604 0.612694
11 5 0.124141 0.578456 0.999568
12 5 0.347441 0.663702 0.95465
14 5 0.215522 0.418681 0.754685
15 5 0.384959 0.43507 0.956418
13 3 0.335144 0.478813 0.815814
10 3 0.230556 0.606994 0.881281
16 4 0.478883 0.474623 0.713945
9 4 0.128985 0.669095 0.771837
19 5 0.622838 0.337533 0.644868
17 3 0.492228 0.392195 0.593078
2 5 0.000437102 0.862336 0.469124
7 5 0.0751396 0.831096 0.833899
8 5 0.329315 0.792652 0.782295
6 3 0.174055 0.779925 0.730838
1 3 0.159265 0.870319 0.512489
