ITEM: TIMESTEP
10120
ITEM: NUMBER OF ATOMS
31
ITEM: BOX BOUNDS ss ss ss
-3.7294421039583334e+01 -3.1883672999531633e+01
4.3677492794860363e+01 5.5788717675971839e+01
-1.4593458588343138e+01 -8.6798579945110337e+00
ITEM: ATOMS id type xs ys zs
5 7 0.548901 0.000247704 0.992196
2 5 0.692874 0.163148 0.999493
3 5 0.439578 0.140019 0.802682
7 5 0.999446 0.202117 0.671411
8 5 0.769717 0.166784 0.456713
12 5 0.919994 0.308894 0.268408
1 3 0.642573 0.122254 0.833274
6 3 0.797557 0.211991 0.622265
9 4 0.790088 0.318757 0.578068
4 6 0.655661 0.0215075 0.869077
11 5 0.92248 0.440507 0.415412
14 5 0.415737 0.35095 0.234147
15 5 0.642972 0.402915 0.0335111
18 5 0.415712 0.635823 0.0715938
19 5 0.694307 0.55823 0.000507305
21 5 0.713343 0.655827 0.486922
22 5 0.943299 0.65432 0.264848
10 3 0.804485 0.363935 0.383124
13 3 0.573174 0.412636 0.213951
17 3 0.573065 0.585311 0.147263
16 4 0.465862 0.502407 0.216224
26 5 0.443985 0.805477 0.456496
25 5 0.645576 0.918458 0.370602
28 5 0.379853 0.963955 0.0149965
29 5 0.184945 0.843601 0.0582727
31 7 0.000554452 0.999752 0.0785257
20 3 0.74212 0.677096 0.30141
24 3 0.539785 0.843822 0.30588
23 4 0.738436 0.780574 0.270901
27 3 0.27518 0.915663 0.148145
30 6 0.0990484 0.977672 0.206856
