31
Atoms. Timestep: 10120
3 -33.8176 45.1581 -9.66581
5 -33.5455 45.6534 -8.68286
5 -34.916 45.3733 -9.84672
6 -33.7468 43.938 -9.45408
7 -34.3245 43.6805 -8.72601
3 -32.979 46.245 -10.9136
5 -31.8867 46.1254 -10.623
5 -33.1297 45.6975 -11.8926
4 -33.0195 47.538 -11.175
3 -32.9416 48.0852 -12.3278
5 -32.3031 49.0126 -12.1369
5 -32.3166 47.4186 -13.0062
3 -34.1931 48.675 -13.3282
5 -35.045 47.9279 -13.2088
5 -33.8155 48.5573 -14.3953
4 -34.7738 49.7623 -13.3148
3 -34.1937 50.7663 -13.7226
5 -35.0451 51.3781 -14.1701
5 -33.5377 50.4383 -14.5905
3 -33.279 51.878 -12.811
5 -33.4347 51.6204 -11.714
5 -32.1905 51.6021 -13.0273
4 -33.2989 53.1312 -12.9915
3 -34.3738 53.8972 -12.7846
5 -33.8014 54.8011 -12.4019
5 -34.8921 53.4328 -11.8939
3 -35.8055 54.7673 -13.7174
5 -35.2391 55.3522 -14.5048
5 -36.2937 53.8945 -14.2489
6 -36.7585 55.5183 -13.3702
7 -37.2914 55.7857 -14.1291
