ITEM: TIMESTEP
10120
ITEM: NUMBER OF ATOMS
31
ITEM: BOX BOUNDS ss ss ss
6.3356841790566378e+01 7.1395843327770493e+01
-6.7689028936492946e+01 -5.9751263905521299e+01
-4.8881704097244381e+01 -4.2255585856957367e+01
ITEM: ATOMS id type xs ys zs
27 3 0.201383 0.219419 0.534081
30 6 0.14512 0.0758717 0.523913
24 3 0.133369 0.409646 0.406792
19 5 0.453633 0.459597 0.165826
26 5 0.126449 0.374297 0.241427
25 5 0.000373181 0.4247 0.462631
28 5 0.337486 0.208948 0.49061
29 5 0.19757 0.255024 0.699833
31 7 0.207654 0.00037794 0.608925
12 5 0.908417 0.42048 0.286945
11 5 0.7397 0.420815 0.468637
14 5 0.673543 0.485888 0.0840816
17 3 0.435559 0.601461 0.164983
20 3 0.245233 0.637413 0.265652
23 4 0.180075 0.564639 0.412997
18 5 0.422248 0.641489 0.000452754
21 5 0.247688 0.775748 0.312735
22 5 0.15361 0.630492 0.134844
4 6 0.838431 0.879455 0.978436
1 3 0.87295 0.843313 0.800791
9 4 0.92447 0.58458 0.485328
6 3 0.887841 0.637691 0.667379
10 3 0.821989 0.507726 0.375855
13 3 0.699303 0.592491 0.194559
16 4 0.566856 0.66919 0.214519
5 7 0.841929 0.999622 0.999547
2 5 0.78057 0.915463 0.704704
3 5 0.999627 0.901233 0.771834
7 5 0.769585 0.569674 0.711407
8 5 0.994113 0.574754 0.751833
15 5 0.782947 0.685845 0.11223
