31
Atoms. Timestep: 10120
3 70.3745 -60.995 -43.5756
5 69.6318 -60.4223 -44.2123
5 71.3928 -60.5353 -43.7674
6 70.097 -60.7081 -42.3985
7 70.1251 -59.7543 -42.2586
3 70.4942 -62.6272 -44.4596
5 69.5435 -63.1671 -44.1678
5 71.3485 -63.1268 -43.9
4 70.7887 -63.0488 -45.6659
3 69.9648 -63.6588 -46.3912
5 69.3033 -64.3487 -45.7765
5 70.6596 -64.3514 -46.9804
3 68.9785 -62.986 -47.5925
5 68.7715 -63.8322 -48.3246
5 69.651 -62.245 -48.1381
4 67.9138 -62.3772 -47.4603
3 66.8583 -62.9148 -47.7885
5 66.7513 -62.597 -48.8787
5 67.0036 -64.0409 -47.7829
3 65.3283 -62.6294 -47.1215
5 65.348 -61.5313 -46.8095
5 64.5917 -62.6843 -47.9882
4 64.8045 -63.2071 -46.1451
3 64.429 -64.4374 -46.1863
5 63.3598 -64.3179 -45.8163
5 64.3734 -64.7179 -47.282
3 64.9758 -65.9473 -45.3428
5 66.0699 -66.0304 -45.6309
5 64.9451 -65.6647 -44.2445
6 64.5235 -67.0868 -45.4102
7 65.0262 -67.686 -44.8469
