ITEM: TIMESTEP
10120
ITEM: NUMBER OF ATOMS
31
ITEM: BOX BOUNDS ss ss ss
1.7092107855037735e+01 2.9623993568377561e+01
-3.2133948180180553e+01 -2.8474024351301747e+01
2.8510720879858852e+01 3.3296797745781994e+01
ITEM: ATOMS id type xs ys zs
26 5 0.120174 0.358459 0.000626818
25 5 0.206743 0.745352 0.0679318
28 5 0.0676028 0.297857 0.526018
29 5 0.162663 0.650014 0.626716
31 7 0.000239389 0.783653 0.688656
24 3 0.181756 0.469543 0.153549
23 4 0.260206 0.246348 0.0983658
27 3 0.10046 0.575108 0.464474
30 6 0.026134 0.793209 0.499069
12 5 0.537962 0.99918 0.577625
11 5 0.593677 0.626858 0.374841
14 5 0.598499 0.328493 0.939764
15 5 0.483417 0.628912 0.961636
18 5 0.343553 0.000819689 0.675515
19 5 0.353611 0.497062 0.68866
21 5 0.395468 0.50208 0.13591
22 5 0.391268 0.00793651 0.134755
10 3 0.594625 0.755044 0.591285
13 3 0.532306 0.458377 0.809512
17 3 0.390661 0.243724 0.59312
20 3 0.351028 0.259628 0.227092
16 4 0.477156 0.194428 0.732391
5 7 0.999761 0.320697 0.988935
2 5 0.83028 0.340301 0.993105
3 5 0.89718 0.781497 0.999373
7 5 0.821493 0.951242 0.509307
8 5 0.760887 0.502091 0.463788
6 3 0.774667 0.728504 0.620635
1 3 0.877938 0.53891 0.861015
9 4 0.683532 0.903667 0.637497
4 6 0.964941 0.385433 0.816164
