31
Atoms. Timestep: 10120
3 28.0943 -30.1616 32.6316
5 27.4971 -30.8885 33.2638
5 28.3355 -29.2737 33.2938
6 29.1846 -30.7233 32.4169
7 29.621 -30.9602 33.2438
3 26.8001 -29.4677 31.4811
5 27.387 -28.6525 30.9483
5 26.6275 -30.2963 30.7304
4 25.658 -28.8266 31.5618
3 24.5439 -29.3705 31.3407
5 24.532 -29.8397 30.3047
5 23.8338 -28.477 31.2753
3 23.7629 -30.4563 32.3851
5 24.5924 -30.9317 33.0085
5 23.1502 -29.8322 33.1132
4 23.0718 -31.4224 32.016
3 21.9878 -31.2419 31.3494
5 21.3975 -32.1309 31.7438
5 21.5235 -30.3147 31.8067
3 21.4911 -31.1837 29.5976
5 22.0481 -30.2964 29.1612
5 21.9954 -32.1049 29.1557
4 20.353 -31.2323 28.9815
3 19.3699 -30.4155 29.2456
5 19.683 -29.406 28.8358
5 18.5981 -30.822 28.5137
3 18.3511 -30.0291 30.7337
5 17.9393 -31.0438 31.0283
5 19.1306 -29.7549 31.5102
6 17.4196 -29.2309 30.8993
7 17.0951 -29.2658 31.8067
