LAMMPS data file via write_data, version 23 Jun 2022, timestep = 100

31 atoms
7 atom types
30 bonds
6 bond types
53 angles
9 angle types
34 dihedrals
14 dihedral types

-15 15 xlo xhi
-15 15 ylo yhi
-15 15 zlo zhi

Masses

1 15.9994
2 1.008
3 12.011
4 15.9994
5 1.008
6 15.9994
7 1.008

Pair Coeffs # lj/cut

1 0 0
2 0 0
3 0 0
4 0 0
5 0 0
6 0 0
7 0 0

Bond Coeffs # harmonic

1 0 0.9572
2 222.35 1.53
3 308.79 1.1111
4 359.76 1.1415
5 427.715 1.142
6 544.635 0.96

Angle Coeffs # charmm

1 0 104.52 0 0
2 50 109 0 0
3 26.5 110.1 22.53 2.179
4 45 111.5 0 0
5 13.0258 109.4 0 0
6 35.5 109 5.4 1.802
7 55 108.89 0 0
8 75.7 110.1 0 0
9 95 109.7 0 0

Dihedral Coeffs # charmm

1 0.57 1 0 0
2 0.29 2 0 0
3 0.43 3 0 0
4 0.59 1 180 0
5 1.16 2 0 0
6 0.12 1 0 0
7 0.42 2 0 0
8 0.29 3 0 0
9 2.87 1 180 0
10 0.03 2 0 0
11 0.23 3 0 0
12 1.36 1 180 0
13 0.16 2 0 0
14 1.01 3 0 0

Atoms # full

4 1 6 0 -1.2376851286162924 -0.05338487206670726 0.09910619249113893 0 0 0
5 1 7 0 -1.4124584938073876 0.8410806029478504 0.4005590679175158 0 0 0
1 1 3 0 -0.23929300799534123 -0.07384516196852028 -0.4574686138148509 0 0 0
2 1 5 0 -0.19591025037532273 -1.0095782213885485 -1.1077343743860935 0 0 0
3 1 5 0 -0.1608187514550142 0.845616080190691 -1.1277864332021992 0 0 0
6 1 3 0 0.919372310140698 -0.08247049704199629 0.5368819224927949 0 0 0
7 1 5 0 0.8502590305126595 0.8356315225074116 1.2098264074464795 0 0 0
8 1 5 0 0.8591452731749418 -1.014478643158076 1.1904846530903783 0 0 0
9 1 4 0 1.9236164614190376 -0.07897841995307421 -0.00901061875127769 0 0 0
10 1 3 0 2.768412908262839 -0.2991801112055845 0.7267744535565681 0 0 0
11 1 5 0 2.841956400239665 0.5420346567041793 1.4946444066280653 0 0 0
12 1 5 0 2.5225001810762984 -1.2705404587071656 1.2720699638297768 0 0 0
13 1 3 0 4.102744814146781 -0.4495939576760111 -0.0034846116365962816 0 0 0
14 1 5 0 3.931167071981903 -0.9820868255204553 -0.9974494642548769 0 0 0
15 1 5 0 4.812821683411459 -1.0806926864797815 0.6288943864737223 0 0 0
16 1 4 0 4.582292018431635 0.5654634752526099 -0.21815611991125494 0 0 0
17 1 3 0 5.377418162231798 0.45168634099505234 -1.0306721545265225 0 0 0
18 1 5 0 5.57498535938016 1.476061189357081 -1.4902441109895834 0 0 0
19 1 5 0 4.971031504757226 -0.2375816395424574 -1.8429650878215524 0 0 0
20 1 3 0 6.682006040188309 -0.1097406046528666 -0.46771398807636205 0 0 0
21 1 5 0 6.45526601671624 -0.7723198914511846 0.43299515992168053 0 0 0
22 1 5 0 7.200414612121328 -0.7431406211876845 -1.2627599126146143 0 0 0
23 1 4 0 7.380364358947444 0.7303082809953394 -0.12917097785628948 0 0 0
26 1 5 0 7.838540249694378 -0.6923683379846118 0.9556559513747179 0 0 0
24 1 3 0 8.196452963445264 0.31165829438644066 0.552502545283024 0 0 0
25 1 5 0 8.342173927521472 1.0228099379260267 1.4325319123020388 0 0 0
27 1 3 0 9.52870116798141 0.12930477743287275 -0.17259347319363635 0 0 0
28 1 5 0 9.83287181337872 1.1094148118436167 -0.6704548115485788 0 0 0
29 1 5 0 9.442249877906361 -0.6791050263414008 -0.9712729784700947 0 0 0
30 1 6 0 10.337725535280907 -0.1794478381839677 0.571591031832839 0 0 0
31 1 7 0 10.169682283053946 -1.080686262939523 0.857074144643879 0 0 0

Velocities

4 8.962725993159665e-05 0.00032844338546724773 -0.00027917355464505316
5 0.0010820010472353165 0.001186907799532223 -0.0015335365232728127
1 -0.0002536928276771564 -0.0003722954354883463 0.00039700785409264335
2 6.082696571935992e-06 1.9195610267295098e-05 0.0005465318236427604
3 0.0011932497341214058 -0.0010932422129311874 0.0006458472194541718
6 -0.00035227979256088264 -0.00018253080669566982 0.00011569852295802148
7 0.00016452132064170749 0.001042267475662625 0.0008083270711987746
8 0.0017313773225669932 -0.0010397947954418896 0.0015688483564139794
9 -0.00020228798294134127 -0.0003452910513393334 -6.392412498449467e-05
10 -0.00019378299298517128 -0.0002148679659932588 -8.198070953679504e-05
11 -0.0009537153750873047 0.001146840840994734 0.0006075957032167857
12 -0.0009500582852228394 -0.0012460795728842632 -0.0003427593443489198
13 0.0003509352608640496 -0.00030305265982092744 -0.000317039048707165
14 0.0004925431649755921 -0.0011772498530809494 0.0003191498380682641
15 0.0009592204931064008 0.0012238543596547512 0.0010165690910943206
16 -2.0261062594016363e-05 8.023082220848415e-05 -0.0003757300479130898
17 -0.0002704090524110017 6.102692643305902e-05 0.00039411854890812137
18 0.0004258775345530759 0.0009234123633831426 -0.00039838285361817974
19 0.0003965134357170165 0.0014574019412142295 0.0006870056967364789
20 -8.869075602697196e-05 -0.00011857357243803983 0.0001427400339207693
21 -0.0005422319363809501 0.000159413161946182 0.0011724773155030988
22 0.0017548594617204515 0.00039595571379749873 0.000765461379795973
23 0.00022022878605004907 0.0002958340311991938 -3.2770415874664144e-06
26 -0.000611182778843819 0.0008227233228016475 0.0012285648319837626
24 6.508039232680987e-05 0.0002638191467630706 -2.200573141648888e-06
25 -0.0004085245226310849 -0.0010808372818767236 0.0007579947418961991
27 8.271600493247558e-05 -0.00029564392966162964 -0.0004248526709005406
28 0.00023923759043101907 -0.0001884141998027134 -0.00010840407284864681
29 0.0007244523227983117 0.0012045499506213868 -0.000783556820508876
30 6.924681007877791e-05 0.0002966432640241423 9.986671018282125e-05
31 -0.00032329119478676383 -0.0003195741125464731 0.0002556333091511606

Bonds

1 6 4 5
2 2 1 6
3 5 1 4
4 4 1 2
5 4 1 3
6 4 6 9
7 4 6 7
8 4 6 8
9 4 9 10
10 2 10 13
11 4 10 11
12 4 10 12
13 4 13 16
14 4 13 14
15 4 13 15
16 4 16 17
17 2 17 20
18 4 17 18
19 4 17 19
20 4 20 23
21 4 20 21
22 4 20 22
23 4 23 24
24 2 24 27
25 4 24 25
26 4 24 26
27 5 27 30
28 4 27 28
29 4 27 29
30 6 30 31

Angles

1 2 1 4 5
2 6 2 1 3
3 7 2 1 4
4 3 2 1 6
5 7 3 1 4
6 3 3 1 6
7 8 4 1 6
8 3 1 6 7
9 3 1 6 8
10 4 1 6 9
11 6 7 6 8
12 5 7 6 9
13 5 8 6 9
14 9 6 9 10
15 5 9 10 11
16 5 9 10 12
17 4 9 10 13
18 6 11 10 12
19 3 11 10 13
20 3 12 10 13
21 3 10 13 14
22 3 10 13 15
23 4 10 13 16
24 6 14 13 15
25 5 14 13 16
26 5 15 13 16
27 9 13 16 17
28 5 16 17 18
29 5 16 17 19
30 4 16 17 20
31 6 18 17 19
32 3 18 17 20
33 3 19 17 20
34 3 17 20 21
35 3 17 20 22
36 4 17 20 23
37 6 21 20 22
38 5 21 20 23
39 5 22 20 23
40 9 20 23 24
41 5 23 24 25
42 5 23 24 26
43 4 23 24 27
44 6 25 24 26
45 3 25 24 27
46 3 26 24 27
47 3 24 27 28
48 3 24 27 29
49 8 24 27 30
50 6 28 27 29
51 7 28 27 30
52 7 29 27 30
53 2 27 30 31

Dihedrals

1 6 6 1 4 5
2 7 6 1 4 5
3 8 6 1 4 5
4 12 4 1 6 9
5 13 4 1 6 9
6 14 4 1 6 9
7 1 1 6 9 10
8 2 1 6 9 10
9 3 1 6 9 10
10 1 6 9 10 13
11 2 6 9 10 13
12 3 6 9 10 13
13 4 9 10 13 16
14 5 9 10 13 16
15 1 10 13 16 17
16 2 10 13 16 17
17 3 10 13 16 17
18 1 13 16 17 20
19 2 13 16 17 20
20 3 13 16 17 20
21 4 16 17 20 23
22 5 16 17 20 23
23 1 17 20 23 24
24 2 17 20 23 24
25 3 17 20 23 24
26 1 20 23 24 27
27 2 20 23 24 27
28 3 20 23 24 27
29 12 23 24 27 30
30 13 23 24 27 30
31 14 23 24 27 30
32 6 24 27 30 31
33 7 24 27 30 31
34 8 24 27 30 31
