ITEM: TIMESTEP
10120
ITEM: NUMBER OF ATOMS
31
ITEM: BOX BOUNDS ss ss ss
5.5732672630212484e+01 6.6391389462500655e+01
5.5902766905953655e+01 6.0372178499645983e+01
-5.5503827120872344e+01 -4.8624093675922701e+01
ITEM: ATOMS id type xs ys zs
23 4 0.32717 0.468754 0.316437
27 3 0.129577 0.786243 0.143968
30 6 0.0199305 0.865504 0.149081
24 3 0.213898 0.559017 0.315174
26 5 0.158228 0.342667 0.320547
25 5 0.201263 0.677616 0.459542
28 5 0.142161 0.664779 0.000436063
29 5 0.187197 0.999329 0.134979
31 7 0.00028146 0.988795 0.0382672
20 3 0.372787 0.351145 0.459696
22 5 0.439631 0.167747 0.407696
4 6 0.892854 0.144823 0.302801
1 3 0.848374 0.217301 0.46193
5 7 0.832315 0.0350387 0.226902
3 5 0.760128 0.348899 0.427647
21 5 0.298288 0.236277 0.552303
17 3 0.452095 0.559788 0.598468
16 4 0.566016 0.568396 0.589103
13 3 0.626044 0.550542 0.746232
14 5 0.619019 0.302566 0.780373
15 5 0.559616 0.672311 0.848366
18 5 0.417371 0.797168 0.568894
19 5 0.423165 0.499981 0.753173
9 4 0.876955 0.511834 0.831964
6 3 0.917005 0.426928 0.665889
10 3 0.77629 0.651118 0.835351
2 5 0.816986 0.000671229 0.532659
7 5 0.957785 0.637267 0.599005
8 5 0.999719 0.283833 0.713146
12 5 0.762354 0.666331 0.999564
11 5 0.794786 0.889235 0.78579
