31
Atoms. Timestep: 10120
3 64.7753 56.874 -52.3259
5 64.4407 55.9058 -51.8393
5 63.8347 57.4621 -52.5617
6 65.2494 56.55 -53.4206
7 64.6041 56.0594 -53.9428
3 65.5068 57.8109 -50.9227
5 65.9414 58.751 -51.3828
5 66.3884 57.1713 -50.5976
4 65.0799 58.1904 -49.7801
3 64.0069 58.8129 -49.7568
5 64.2041 59.8771 -50.0978
5 63.8584 58.8809 -48.6271
3 62.4055 58.3634 -50.37
5 62.3306 57.2551 -50.1351
5 61.6975 58.9076 -49.6673
4 61.7657 58.4432 -51.451
3 60.5514 58.4047 -51.3865
5 60.1813 59.4656 -51.59
5 60.2431 58.1374 -50.3222
3 59.7061 57.4722 -52.3412
5 58.912 56.9588 -51.7041
5 60.4186 56.6525 -52.699
4 59.2199 57.9978 -53.3268
3 58.0126 58.4012 -53.3355
5 57.8779 58.9313 -52.3423
5 57.4192 57.4343 -53.2986
3 57.1138 59.4168 -54.5134
5 57.2479 58.8739 -55.5008
5 57.728 60.3692 -54.5752
6 55.9451 59.7711 -54.4782
7 55.7357 60.3221 -55.2406
