LAMMPS data file via write_data, version 19 Nov 2024, timestep = 15500, units = real

8713 atoms
13 atom types
8530 bonds
9 bond types
16664 angles
12 angle types
23564 dihedrals
4 dihedral types
1 impropers
1 improper types

-29.23165 29.23165 xlo xhi
-27.39825 27.39825 ylo yhi
-5 70 zlo zhi

Masses

1 12.011
2 1.008
3 12.011
4 15.9994
5 1.008
6 15.9994
7 1.008
8 15.9994
9 1.008
10 15.9994
11 15.9994
12 1.008
13 12.011

Pair Coeffs # lj/cut/tip4p/long

1 0.0663016 3.58118
2 0.0282937 2.37341
3 0.0663016 3.58118
4 0.1852 3.1589
5 0 1
6 0.01195 3.81
7 0 1
8 0.1912 3.1
9 0 1
10 0.412295 2.62585
11 0.203061 2.95484
12 0 0
13 0.245018 2.81144

Bond Coeffs # harmonic

1 1109.29 1.12
2 299.844 1.52
3 203.155 1.51
4 0 0.9574
5 442.161 0.972
6 478.011 0.984
7 500.418 1.25
8 399.792 1.43
9 442.161 0.972

Angle Coeffs # harmonic

1 30.1731 109.5
2 47.635 109.6
3 55.1139 111
4 47.5019 108.53
5 54.9931 110.3
6 180.46 109
7 298.152 107
8 0 104.52
9 47.694 109.5
10 47.694 109.5
11 60.166 126
12 286.382 113

Dihedral Coeffs # harmonic

1 1.41491 1 3
2 0 1 1
3 1.69933 -1 2
4 0 1 1

Improper Coeffs # harmonic

1 20.0075 0

Atoms # full

7905 142 2 0.078 -26.897470159744618 -24.13473396463314 1.5447041074005696 0 0 0
7843 141 2 0.07199999999999999 -28.86021204529392 -21.772563180916446 -0.658465523282776 0 0 0
3877 70 2 0.078 -0.1489089696531007 -20.05471940207823 3.6707159053663885 -1 0 0
7847 141 2 0.077 -28.264998037548672 -21.170532915389856 1.5802889286653534 0 0 0
7732 139 2 0.07199999999999999 -28.103397419634327 -26.945363140523728 0.6608917342097556 0 0 0
7730 139 3 -0.211 -29.20860400259917 -27.01587493580886 0.4270506 0 0 0
8297 149 2 0.078 -22.588504760424343 -22.128628729528558 2.550680904204845 0 0 0
7902 142 2 0.077 -25.417979361307783 -23.024798983484988 0.06395697106221088 0 0 0
8010 144 3 -0.211 -24.142393002599167 -19.64726793580886 -0.33859348 0 0 0
8012 144 2 0.07199999999999999 -23.20859894320295 -19.199082030691333 0.035088608912406026 0 0 0
8009 144 2 0.07199999999999999 -23.838004294330176 -20.45030818599842 -1.0432678390295405 0 0 0
8014 144 2 0.077 -24.260074356324335 -21.080935906530694 1.2963921345703764 0 0 0
8015 144 2 0.077 -25.87667289002543 -20.482739475249076 0.6270963736568457 0 0 0
8013 144 1 -0.158 -24.837556584358598 -20.148450746032672 0.906327165565893 0 0 0
7901 142 1 -0.158 -24.88791958697581 -23.764886114962735 0.7237170451971573 0 0 0
8291 149 2 0.07199999999999999 -22.01399675322919 -22.80333894158093 0.29738047314288074 0 0 0
7904 142 1 -0.157 -25.80810709054732 -24.110424667745246 1.8834821714207484 0 0 0
7903 142 2 0.077 -23.940568739320753 -23.277355660936642 1.122189263779998 0 0 0
7897 142 2 0.07199999999999999 -23.600373760692616 -24.601423907167607 -0.650494638951442 0 0 0
7906 142 2 0.078 -25.565341048504198 -25.16529188268902 2.2137530381529746 0 0 0
7899 142 2 0.07199999999999999 -24.060395047985185 -25.787589013976103 0.5394533226114723 0 0 0
7900 142 2 0.07199999999999999 -25.295917133729997 -25.28536768435691 -0.7742797318674854 0 0 0
8186 147 2 0.078 -22.51376340123731 -25.343924606584086 1.8095887590229816 0 0 0
7898 142 3 -0.211 -24.50439200259917 -24.939217935808863 -0.08340168 0 0 0
8356 150 2 0.078 -18.21757123042444 -22.790740704625772 2.4015908921416464 0 0 0
8357 150 2 0.078 -19.22225358168407 -24.207028440819098 2.0201176782786763 0 0 0
3257 59 2 0.078 -14.45292356293951 -21.598503032910553 1.8340254613081453 -1 0 0
8458 152 3 -0.211 -15.92212800259917 -19.77229893580886 -0.294034 0 0 0
8459 152 2 0.07199999999999999 -15.00237238384495 -19.962229039755382 0.33269342820690956 0 0 0
8460 152 2 0.07199999999999999 -15.97424943775751 -20.758521492855817 -0.8332101888225061 0 0 0
8462 152 2 0.077 -17.271536352401483 -20.836173482897227 1.0202055799327103 0 0 0
8461 152 1 -0.158 -17.1058343933964 -19.83847524336223 0.6193306010977596 0 0 0
8463 152 2 0.077 -18.065171839927572 -19.512161670912047 0.15019479913993528 0 0 0
8352 150 1 -0.157 -17.084395465556348 -24.526869089896444 1.8477511100794615 0 0 0
8349 150 1 -0.158 -17.061830549320824 -24.26647838234479 0.32405147475314106 0 0 0
8351 150 2 0.077 -17.237528303820355 -23.16143098876506 0.2111163945415785 0 0 0
8350 150 2 0.077 -17.966507873561675 -24.797027156946314 -0.09796188441154487 0 0 0
8345 150 2 0.07199999999999999 -15.823833026232396 -24.269148391019534 -1.3485839973015707 0 0 0
8295 149 2 0.077 -20.042230180230092 -20.663544870338203 1.4749934445107669 0 0 0
8294 149 2 0.077 -21.783506306216164 -20.500308941069502 1.0813076955964895 0 0 0
8290 149 3 -0.211 -21.013113002599173 -22.310586935808864 0.3637724 0 0 0
8292 149 2 0.07199999999999999 -20.92648281655235 -21.798141360373563 -0.6042305679952114 0 0 0
8289 149 2 0.07199999999999999 -20.193464431558855 -23.0710432605958 0.5463347029164713 0 0 0
8293 149 1 -0.158 -21.017065126033476 -21.22319123614482 1.435284835208115 0 0 0
8354 150 2 0.078 -16.18957304197366 -23.975514286847552 2.277960062757622 0 0 0
8347 150 2 0.07199999999999999 -14.997796289373683 -24.766860265427635 0.16685270858465467 0 0 0
8348 150 2 0.07199999999999999 -16.084424957611027 -25.930358708620894 -0.6125115757015391 0 0 0
8346 150 3 -0.211 -15.93158100259917 -24.85558493580886 -0.42104816 0 0 0
8353 150 2 0.078 -16.97692803305925 -25.612384981527253 2.0789201921799036 0 0 0
8180 147 2 0.07199999999999999 -19.92475620213482 -26.688779715576587 0.7313717486376585 0 0 0
8179 147 2 0.07199999999999999 -21.44003582920167 -26.14878709004606 -0.09591425188523013 0 0 0
8178 147 3 -0.211 -20.955228002599167 -26.98771493580886 0.42238903 0 0 0
3426 62 2 0.078 -7.2033388195732 -19.32252295860448 2.24995649310351 -1 0 0
3425 62 2 0.078 -8.543574445690282 -20.451891952299047 2.02446606751655 -1 0 0
3313 60 2 0.078 -9.351789429415641 -23.784238765671148 1.3402824215745002 -1 0 0
3424 62 1 -0.157 -8.267637000989165 -19.399603381138373 1.9378392515584686 -1 0 0
3417 62 2 0.07199999999999999 -8.014147764233664 -20.996161732067073 -0.3522786928631729 -1 0 0
3419 62 2 0.07199999999999999 -7.32231816376901 -19.652325372072365 -1.3625426505302334 -1 0 0
3418 62 3 -0.211 -7.5242920025991715 -19.978940935808858 -0.3302393 -1 0 0
3312 60 1 -0.157 -8.69706866487666 -24.536156332034015 1.841092028940789 -1 0 0
3314 60 2 0.078 -9.284529715381248 -25.483589855068328 1.7862945216500783 -1 0 0
3305 60 2 0.07199999999999999 -8.50057238959784 -24.31994469607155 -0.8229056311000787 -1 0 0
3255 59 2 0.077 -11.663615374196484 -22.89559746627125 1.7985813093560277 -1 0 0
3308 60 2 0.07199999999999999 -8.327596747779168 -26.06135594153505 -0.26798140646264057 -1 0 0
3254 59 2 0.077 -12.025934761438702 -21.21511159013167 1.373118099531757 -1 0 0
3256 59 1 -0.157 -13.631972424234892 -22.14926560445239 2.37134240154135 -1 0 0
3253 59 1 -0.158 -12.455066001133446 -22.238839535686413 1.4447675204235777 -1 0 0
3250 59 3 -0.211 -12.977037002599172 -22.64662693580886 0.054556847 -1 0 0
3251 59 2 0.07199999999999999 -13.315408008240757 -23.72432960276256 0.14353360845907548 -1 0 0
3249 59 2 0.07199999999999999 -12.163361337264865 -22.531955272898575 -0.6874490499647494 -1 0 0
3252 59 2 0.07199999999999999 -13.83169033943256 -21.989783032643324 -0.21414835917218766 -1 0 0
3309 60 1 -0.158 -7.396301219788574 -24.659662082871986 1.0863130571661617 -1 0 0
3306 60 3 -0.211 -7.810582002599173 -25.03413993580886 -0.33030415 -1 0 0
3311 60 2 0.077 -6.772947745145269 -25.493378922986015 1.501703057859829 -1 0 0
3141 57 1 -0.158 -12.914352635457925 -27.309513530061043 1.9557135004356816 -1 0 0
3146 57 2 0.078 -13.799709427451216 -25.35623493801393 2.367165032228182 -1 0 0
3137 57 2 0.07199999999999999 -12.061190761848792 -26.46309790281727 0.13338942998324638 -1 0 0
3140 57 2 0.07199999999999999 -13.844856927640583 -26.977890948091787 0.10380287717690911 -1 0 0
3138 57 3 -0.211 -12.817355002599175 -27.20431293580886 0.43482494 -1 0 0
3594 65 2 0.078 -4.885032876210073 -25.518183190051236 2.517323099606559 -1 0 0
3761 68 2 0.078 -1.735936223823645 -24.415810588776388 1.5239232740681832 -1 0 0
3760 68 1 -0.157 -0.7651687148873417 -24.57863169637034 2.0744731550125977 -1 0 0
3698 67 3 -0.211 -4.44000700259917 -22.18028093580886 0.17140484 -1 0 0
6016 108 2 0.078 -29.15953302067061 1.7451254426419256 6.953147466697899 0 -1 0
3871 70 2 0.077 -1.1273224563988413 -20.032951806746674 0.3872369630068292 -1 0 0
3872 70 1 -0.157 -0.1731150926374901 -18.80459241210998 1.9173508136476511 -1 0 0
3701 67 1 -0.158 -4.041504482022876 -21.72426098703087 1.560043345368065 -1 0 0
3703 67 2 0.077 -3.256380845936559 -22.374285898972634 2.0004645114244823 -1 0 0
3702 67 2 0.077 -3.605469840000867 -20.65978837755231 1.5162303727901705 -1 0 0
3699 67 2 0.07199999999999999 -3.4860430716569697 -22.183275620421252 -0.4184043392005802 -1 0 0
3700 67 2 0.07199999999999999 -4.8836112881753495 -23.21466520177378 0.15167520779237897 -1 0 0
3756 68 2 0.07199999999999999 -0.3872818073818667 -24.777702294816432 -0.6668119954285798 -1 0 0
3697 67 2 0.07199999999999999 -5.141092718148019 -21.45032756539892 -0.33265580282817336 -1 0 0
3705 67 2 0.078 -6.121784920516059 -21.32448882550356 2.2499094195933873 -1 0 0
3588 65 2 0.07199999999999999 -3.036947949076178 -26.8010433659005 0.5132640929586315 -1 0 0
3586 65 3 -0.211 -4.152905002599173 -27.01587493580886 0.4270506 -1 0 0
3587 65 2 0.07199999999999999 -4.648377219703041 -26.068780354615672 0.17184864285148865 -1 0 0
3310 60 2 0.077 -6.775847589324972 -23.717015845628378 1.1088914960081406 -1 0 0
3307 60 2 0.07199999999999999 -6.962114598434574 -25.05088165422494 -1.030631584510857 -1 0 0
6888 123 2 0.07199999999999999 -28.788148518624897 14.279836729857788 20.075486187367304 0 -1 0
1607 29 2 0.08 -0.39466705135975244 -2.1557271760777383 13.871693796743935 -1 -1 0
7960 143 1 -0.157 -28.56401901586116 -16.682560991975517 1.6549238358035336 0 0 0
7961 143 2 0.078 -27.532756639522614 -16.53366028480514 2.0471301660777854 0 0 0
7958 143 2 0.077 -27.648021661722993 -17.779810706693272 -0.07482383601419998 0 0 0
7959 143 2 0.077 -28.470791980803703 -18.696118018833314 1.2126739105474567 0 0 0
7957 143 1 -0.158 -28.53015516819653 -17.77087082989735 0.6230409574603089 0 0 0
8128 146 1 -0.157 -25.54789586841201 -14.256997551285123 2.0556369754566584 0 0 0
8125 146 1 -0.158 -25.75295479579226 -14.341883270637048 0.519183240830989 0 0 0
8122 146 3 -0.211 -24.702859002599173 -15.118054935808864 -0.24642658 0 0 0
8124 146 2 0.07199999999999999 -24.940787367295506 -15.213490788393232 -1.3436075160517074 0 0 0
8123 146 2 0.07199999999999999 -24.721669086859613 -16.17246585364845 0.1812192933419807 0 0 0
8121 146 2 0.07199999999999999 -23.645658528662896 -14.71948803730022 -0.15131094044089458 0 0 0
8517 153 1 -0.158 -21.922396197939538 -12.35978297880138 1.486782521285113 0 0 0
8519 153 2 0.077 -23.00980710650175 -12.486385196554886 1.3169230712084439 0 0 0
8518 153 2 0.077 -21.54053910966781 -13.317949200193285 1.885061548076108 0 0 0
8127 146 2 0.077 -25.65802984950454 -13.313959337236716 0.0802246048814656 0 0 0
8410 151 2 0.078 -23.376351729074866 -16.632517450832598 2.1451269134362847 0 0 0
8126 146 2 0.077 -26.8147817248747 -14.633778689112672 0.3657791667402496 0 0 0
8018 144 2 0.078 -25.498331333725297 -18.116305948485135 1.4506001542165987 0 0 0
8011 144 2 0.07199999999999999 -24.776748736248766 -18.78470915670992 -0.7473390473755129 0 0 0
8016 144 1 -0.157 -24.997662705976474 -19.03517502671895 1.9133086576816762 0 0 0
8403 151 2 0.07199999999999999 -22.376834068370222 -17.145282572643247 -0.16094245196730095 0 0 0
8514 153 3 -0.211 -21.066343002599172 -12.215184935808857 0.20806408 0 0 0
8513 153 2 0.07199999999999999 -20.06985773667804 -11.789991746511967 0.5369869217342084 0 0 0
8515 153 2 0.07199999999999999 -20.903617585862243 -13.2184791182374 -0.2286930166607769 0 0 0
8404 151 2 0.07199999999999999 -20.735848495378832 -16.20381870265687 0.04553577874260531 0 0 0
8574 154 2 0.077 -17.563914505300747 -13.695695176197187 0.09552564450486305 0 0 0
8576 154 1 -0.157 -16.937169080604217 -14.351353090805803 2.093075665739288 0 0 0
8573 154 1 -0.158 -16.649684887305746 -13.911526481815345 0.6585732054860702 0 0 0
8575 154 2 0.077 -16.032680676513923 -12.976242244158728 0.7232954033787603 0 0 0
8572 154 2 0.07199999999999999 -15.485826577595034 -14.485600515273944 -1.0698222025255864 0 0 0
8571 154 2 0.07199999999999999 -16.58419402781187 -15.728574749784487 -0.5376654813348791 0 0 0
8569 154 2 0.07199999999999999 -15.049279170132476 -15.312065322564468 0.5299644448506208 0 0 0
8570 154 3 -0.211 -15.890806002599167 -14.932374935808859 -0.14091587 0 0 0
3370 61 2 0.078 -14.70673787682124 -16.5370047383956 2.225645582159088 -1 0 0
8578 154 2 0.078 -15.96209769961933 -14.607111141761198 2.5650979677206798 0 0 0
8577 154 2 0.078 -17.58224709793603 -15.26472140649761 2.165514623185762 0 0 0
8465 152 2 0.078 -15.902455195892557 -19.17568639482235 2.421374424976174 0 0 0
8466 152 2 0.078 -16.699393837259795 -17.78431209619297 1.5489109459556964 0 0 0
8464 152 1 -0.157 -16.83995262741934 -18.87712038440879 1.8729827884389154 0 0 0
8457 152 2 0.07199999999999999 -15.838870013465666 -18.88507752222159 -0.9633601002402181 0 0 0
8407 151 2 0.077 -21.80826068364665 -18.337344876554106 2.050999765936125 0 0 0
8401 151 2 0.07199999999999999 -20.686480563980183 -17.970782060225634 -0.1321822445778503 0 0 0
8402 151 3 -0.211 -21.325494002599168 -17.144891935808857 0.3140936 0 0 0
8405 151 1 -0.158 -21.40500442989295 -17.385830507520126 1.775088262031546 0 0 0
8406 151 2 0.077 -20.377700466883407 -17.263923957454413 2.264927896168114 0 0 0
3474 63 3 -0.211 -12.847157002599172 -12.440617935808866 0.2057333 -1 0 0
3475 63 2 0.07199999999999999 -12.266857834363934 -11.93016497942507 -0.6484883115786735 -1 0 0
3476 63 2 0.07199999999999999 -12.459298902259071 -13.484548731390847 0.2564767328053414 -1 0 0
3473 63 2 0.07199999999999999 -13.968514735317648 -12.464751899342474 0.06161259991931468 -1 0 0
3363 61 2 0.07199999999999999 -12.466676585249369 -16.507164833918708 -0.0011512646029413105 -1 0 0
3533 64 1 -0.158 -8.739099270865522 -15.19704555095999 0.541121184739428 -1 0 0
3530 64 3 -0.211 -7.644147002599173 -14.934609935808858 -0.31948566 -1 0 0
3531 64 2 0.07199999999999999 -7.737206861754503 -13.894664924561075 -0.6588743470726656 -1 0 0
3529 64 2 0.07199999999999999 -7.759951461310029 -15.63416036945459 -1.1975700045437287 -1 0 0
3536 64 1 -0.157 -8.59795888459884 -14.326088323372991 1.7740636282038103 -1 0 0
3535 64 2 0.077 -9.731009688611167 -14.931060722869613 0.16883833576698695 -1 0 0
3534 64 2 0.077 -8.737918424629989 -16.26825348840642 0.922821693173201 -1 0 0
3538 64 2 0.078 -8.548115394486762 -13.250658697384582 1.50132723228929 -1 0 0
3537 64 2 0.078 -7.654731470871293 -14.588912840962719 2.2863476633810724 -1 0 0
3428 62 2 0.078 -8.726589810098279 -17.54204466686577 2.9110008185308054 -1 0 0
3368 61 1 -0.157 -13.652813233458163 -16.840657329341358 2.4460142344723534 -1 0 0
3369 61 2 0.078 -13.026925282056292 -15.904317055568104 2.3236795190051205 -1 0 0
3423 62 2 0.077 -7.857033107097972 -18.050919874784014 0.3451221296254103 -1 0 0
3421 62 1 -0.158 -8.323603051785131 -19.07215279989412 0.4475289762771194 -1 0 0
3422 62 2 0.077 -9.388955559296468 -18.968582673862812 0.09414486281936374 -1 0 0
3366 61 2 0.077 -12.195240862139677 -18.2987053026688 1.8677700074592851 -1 0 0
3365 61 1 -0.158 -13.186107467799163 -17.934693027741037 1.512589138707651 -1 0 0
3362 61 3 -0.211 -13.048695002599171 -17.46175593580886 0.11861706 -1 0 0
3367 61 2 0.077 -13.909096088375001 -18.822119732162722 1.6158845149815588 -1 0 0
3364 61 2 0.07199999999999999 -12.53357893201435 -18.22381412875414 -0.4741900357267775 -1 0 0
3361 61 2 0.07199999999999999 -14.046987489697415 -17.419718513864336 -0.31779829863239745 -1 0 0
3532 64 2 0.07199999999999999 -6.648231956500306 -15.08576868729003 0.17943007933350452 -1 0 0
3816 69 1 -0.157 -5.04609005141116 -16.762217155362276 2.2253748566422873 -1 0 0
3921 71 2 0.07199999999999999 -5.574606453828754 -12.670598898165476 -0.36288551091020993 -1 0 0
3818 69 2 0.078 -6.01523953827961 -16.402255917558026 1.8781257739644643 -1 0 0
3930 71 2 0.078 -6.431763469662896 -11.572504881513268 2.218668757815389 -1 0 0
3927 71 2 0.077 -5.413872634578751 -13.818753482367855 1.895714790867505 -1 0 0
3925 71 1 -0.158 -4.806280013274781 -12.886524327238861 1.7418676000726403 -1 0 0
3926 71 2 0.077 -3.7523664918704878 -13.057544525171972 2.1226060140734053 -1 0 0
3924 71 2 0.07199999999999999 -3.9312749415868824 -13.285151677641986 -0.24669817806947902 -1 0 0
3817 69 2 0.078 -4.29626316743439 -15.920906048256617 2.0912622197052904 -1 0 0
3922 71 3 -0.211 -4.615753002599167 -12.537354935808857 0.23921871 -1 0 0
3979 72 2 0.07199999999999999 -0.6683496479535511 -15.549196754386706 -0.40908078995382285 -1 0 0
2273 41 2 0.078 -0.09516524750703838 24.332953471771326 12.309853719210555 -1 -1 0
3985 72 2 0.078 -0.5401319996921895 -15.201791271327512 2.15860319602919 -1 0 0
3809 69 2 0.07199999999999999 -4.142815928199328 -16.841299100030767 -0.5200435917029401 -1 0 0
5792 104 2 0.078 -28.8577411306568 -8.285959775899043 7.479923760858316 0 -1 0
3814 69 2 0.077 -3.6049655634436575 -18.179286370126494 1.728853565506068 -1 0 0
6470 116 2 0.079 -28.840929989040294 24.13269924068149 9.420667554481986 0 -1 0
3874 70 2 0.078 -0.8253471554405433 -17.985710803518632 1.5000952989318384 -1 0 0
3811 69 2 0.07199999999999999 -4.455706694794802 -18.573864403834182 -0.6644158362288097 -1 0 0
3813 69 1 -0.158 -4.617335362554236 -17.89756032340913 1.3228223842194855 -1 0 0
3815 69 2 0.077 -5.21524112994717 -18.825387582247213 1.382458907240919 -1 0 0
3812 69 2 0.07199999999999999 -5.74977810139024 -17.490129045067345 -0.5519542167856736 -1 0 0
3420 62 2 0.07199999999999999 -6.579880375934663 -20.228863704929484 0.21966916607494644 -1 0 0
3810 69 3 -0.211 -4.750225002599169 -17.68638793580886 -0.13897419 -1 0 0
8071 145 2 0.077 -28.340856766755557 -11.466938805281563 1.546107199800859 0 0 0
4367 78 2 0.07199999999999999 -0.07442513267049419 -14.091497646517219 18.14250843367457 -1 0 0
8693 177 4 -1.1128 -1.350981815068755 -2.0094887534793244 29.24986045620522 0 0 0
6169 111 2 0.078 -29.21524820021357 12.838140713230645 3.138235938744491 0 -1 0
4396 79 2 0.079 -0.0866904006505032 -9.947293128051127 9.128557534925797 -1 0 0
8047 144 2 0.08 -28.711843541408385 -14.454983883151751 13.110661381501094 0 0 0
5714 103 3 -0.211 -29.20860400259917 -7.089871935808851 0.4270506 0 -1 0
5889 106 2 0.078 -26.57640214520711 -4.521902758135941 1.6611407576123358 0 -1 0
5772 104 2 0.07199999999999999 -24.16101987295434 -10.558213788342313 -0.6431754403039037 0 -1 0
5773 104 1 -0.158 -25.014308435070348 -10.019245804988946 1.1956245284557852 0 -1 0
5770 104 3 -0.211 -24.51812900259917 -9.62473593580885 -0.13761616 0 -1 0
5774 104 2 0.077 -24.3135923709373 -10.718186014601025 1.7359765387019759 0 -1 0
5771 104 2 0.07199999999999999 -23.61587599806304 -8.977295422964543 -0.13552145283323752 0 -1 0
5778 104 2 0.078 -26.04385612028051 -8.23652107632603 1.6342078745818316 0 -1 0
5776 104 1 -0.157 -25.313478776100585 -8.889320831510101 2.1645407166128336 0 -1 0
5769 104 2 0.07199999999999999 -25.373516032049505 -9.17551364196038 -0.76928474850648 0 -1 0
5884 106 2 0.07199999999999999 -25.531029587843452 -5.110551594988008 -0.5486111177525286 0 -1 0
5883 106 2 0.07199999999999999 -24.199729974307775 -6.079021564601323 0.1800229389402162 0 -1 0
5881 106 2 0.07199999999999999 -23.80790071850356 -4.569311431053341 -0.8494499155645567 0 -1 0
5882 106 3 -0.211 -24.50439200259917 -5.013216935808849 -0.08340168 0 -1 0
5888 106 1 -0.157 -25.54812353020711 -4.7020759807541825 2.0762143564687805 0 -1 0
5890 106 2 0.078 -25.45426580409499 -5.810986061115185 2.101258048518005 0 -1 0
6505 117 2 0.078 -22.56635224246904 -6.3745485921571605 2.3922696728686614 0 -1 0
5775 104 2 0.077 -25.988009519597497 -10.561705092681436 1.075142707461134 0 -1 0
8516 153 2 0.07199999999999999 -21.52957393244605 -11.494894368824246 -0.5172244722215997 0 0 0
8522 153 2 0.078 -21.968141018395073 -10.217243088363846 1.9601948591861238 0 0 0
6554 118 3 -0.211 -15.64312900259917 -9.742117935808857 -0.17693043 0 -1 0
6555 118 2 0.07199999999999999 -15.98748110026184 -10.291195701532383 -1.074217874378799 0 -1 0
6557 118 1 -0.158 -16.71453612704416 -9.813080887642842 0.9200007167705228 0 -1 0
6558 118 2 0.077 -16.9739094043745 -10.882598503448305 1.100400526980235 0 -1 0
6559 118 2 0.077 -17.582704537279472 -9.261670897652023 0.4129164782076327 0 -1 0
6499 117 2 0.07199999999999999 -21.05812289588806 -8.165377684433796 0.5309151061724551 0 -1 0
6500 117 2 0.07199999999999999 -21.91139591224526 -6.5415251498988205 0.1420359948193679 0 -1 0
6497 117 2 0.07199999999999999 -20.134646811014303 -6.868937669032329 -0.3614888025823202 0 -1 0
6503 117 2 0.077 -19.489984224347918 -6.824683485997707 2.0277718139105474 0 -1 0
6502 117 2 0.077 -20.44478974982896 -5.363594520027977 1.5632768657336251 0 -1 0
6501 117 1 -0.158 -20.494440270756485 -6.468994708490839 1.6753311904154082 0 -1 0
6498 117 3 -0.211 -20.955228002599167 -7.061712935808849 0.42238903 0 -1 0
6560 118 1 -0.157 -16.214139093573905 -9.125954442379635 2.2226001419781767 0 -1 0
6556 118 2 0.07199999999999999 -15.317472209608114 -8.634364886797984 -0.25189994780831865 0 -1 0
6562 118 2 0.078 -15.844193246879174 -8.096356071007396 2.017809480060102 0 -1 0
6671 120 2 0.077 -15.28851953439314 -3.8898106158276358 1.1577792211655258 0 -1 0
6667 120 2 0.07199999999999999 -14.961297290441943 -5.472507746646288 -0.1650702050424976 0 -1 0
6668 120 2 0.07199999999999999 -16.63965682320814 -5.75501122950314 -0.3583043841709864 0 -1 0
6665 120 2 0.07199999999999999 -15.94525570506989 -4.398201017013762 -1.3993147260377927 0 -1 0
6666 120 3 -0.211 -15.93158100259917 -4.929581935808862 -0.42104816 0 -1 0
6669 120 1 -0.158 -16.292097686285974 -4.092897400044805 0.7263232532219112 0 -1 0
6672 120 1 -0.157 -17.06694983411554 -4.7465907348652125 1.8679600075649607 0 -1 0
6674 120 2 0.078 -16.601265227451254 -5.740001699751548 2.1216459170800883 0 -1 0
6673 120 2 0.078 -18.10477938565707 -4.981158920943356 1.4959718024389244 0 -1 0
6561 118 2 0.078 -15.399265416333325 -9.720257678274667 2.6991292086963297 0 -1 0
6564 118 2 0.078 -18.447791122665944 -8.848630129359044 2.761394198763927 0 -1 0
6553 118 2 0.07199999999999999 -14.765724328913977 -10.343158393958214 0.16381322025685563 0 -1 0
3477 63 1 -0.158 -12.549724231753066 -11.697748978295293 1.470531367005504 -1 0 0
3479 63 2 0.077 -11.474014527388631 -11.703783077676649 1.5992489088357882 -1 0 0
3480 63 1 -0.157 -13.407739115909115 -12.28378373596055 2.6182223055466496 -1 0 0
3481 63 2 0.078 -14.473931420225867 -12.372051006221353 2.2576602938605768 -1 0 0
3478 63 2 0.077 -12.748585655766586 -10.625041756968892 1.40136825619226 -1 0 0
64 2 1 -0.157 -9.086950554319536 -9.311494935120882 2.1344246424186046 -1 -1 0
58 2 3 -0.211 -7.854493002599174 -9.850871935808861 -0.0517931 -1 -1 0
59 2 2 0.07199999999999999 -7.407401728446263 -10.699423523773756 0.49508729355187253 -1 -1 0
60 2 2 0.07199999999999999 -8.83005076015001 -10.165411219091972 -0.5600054011859539 -1 -1 0
65 2 2 0.078 -10.051370116645122 -9.76450055434701 1.8235597548860398 -1 -1 0
3 1 2 0.07199999999999999 -12.684140822145373 -8.019237860442523 -0.4001986386743369 -1 -1 0
2 1 3 -0.211 -12.817355002599175 -7.278311935808851 0.43482494 -1 -1 0
4 1 2 0.07199999999999999 -13.88648069937382 -7.447444192043455 0.6659503083738767 -1 -1 0
1 1 2 0.07199999999999999 -12.72597742993674 -6.28484428895005 -0.0578887065781604 -1 -1 0
10 1 2 0.078 -12.681244380969298 -5.446102722157021 2.1911267676485178 -1 -1 0
61 2 1 -0.158 -8.214737279605686 -8.760217352948805 1.0000916525013712 -1 -1 0
7 1 2 0.077 -11.840473184978713 -8.454267044284348 1.9573998094478589 -1 -1 0
5 1 1 -0.158 -11.87445675915145 -7.400024682611643 1.5799420613592354 -1 -1 0
6 1 2 0.077 -10.873461575988436 -7.153941174189771 1.1923791646178372 -1 -1 0
62 2 2 0.077 -8.684769199256003 -7.817780748884323 0.6092233583784059 -1 -1 0
170 4 3 -0.211 -7.810582002599173 -5.108135935808853 -0.33030415 -1 -1 0
173 4 1 -0.158 -7.65805786356998 -4.772161726225473 1.1751173316475705 -1 -1 0
171 4 2 0.07199999999999999 -7.765566438468911 -4.218477944406896 -1.0208135451672549 -1 -1 0
169 4 2 0.07199999999999999 -8.747126617497786 -5.719645666910218 -0.5430749741327477 -1 -1 0
176 4 1 -0.157 -8.879778350647452 -4.036427327235455 1.913679668081483 -1 -1 0
175 4 2 0.077 -7.405919101357079 -5.7406934510015395 1.6153876069095279 -1 -1 0
178 4 2 0.078 -9.801486392797372 -4.628131376406321 1.7484671360929058 -1 -1 0
8 1 1 -0.157 -12.344977814059416 -6.387237544750827 2.672406353459661 -1 -1 0
57 2 2 0.07199999999999999 -7.231534011063382 -9.223742427621895 -0.7983142391353434 -1 -1 0
3928 71 1 -0.157 -5.385284519398451 -11.773490545159817 2.580336363622034 -1 0 0
3929 71 2 0.078 -4.8103782684224985 -10.831671106503775 2.4355182975703453 -1 0 0
3923 71 2 0.07199999999999999 -4.230951180361828 -11.520985710294813 0.06356250242590489 -1 0 0
845 16 1 -0.158 -0.6007278771054558 -9.555295710570373 0.84182379149826 -1 -1 0
847 16 2 0.077 -1.3239837730897586 -8.87590319277161 0.26481186887308006 -1 -1 0
63 2 2 0.077 -7.28841711183837 -8.432776340778037 1.4835485303138747 -1 -1 0
172 4 2 0.07199999999999999 -6.999205031508704 -5.800588869546318 -0.6801797300323167 -1 -1 0
174 4 2 0.077 -6.786944314584883 -4.106889767272467 1.3008016231723198 -1 -1 0
787 15 2 0.07199999999999999 -5.129647373149663 -6.974765254992284 -0.0893621222322931 -1 -1 0
790 15 2 0.077 -4.588774471333318 -5.252297487215799 1.3201776014100481 -1 -1 0
793 15 2 0.078 -6.011074603607663 -6.6956598775030995 2.75056243755491 -1 -1 0
848 16 1 -0.157 -0.16745754955898884 -9.031408219162339 2.133236418929996 -1 -1 0
788 15 2 0.07199999999999999 -3.3591049044314003 -6.844469714337215 -0.3369624519271004 -1 -1 0
785 15 2 0.07199999999999999 -4.139513960463275 -8.166544225660047 0.7185335534144783 -1 -1 0
1410 26 2 0.078 -0.13233836133901333 14.155265392831538 2.249737769671028 -1 -1 0
789 15 1 -0.158 -4.204063396098925 -6.216874404370382 1.6505082683337349 -1 -1 0
786 15 3 -0.211 -4.152905002599173 -7.089871935808851 0.4270506 -1 -1 0
960 18 1 -0.157 -0.4115443775152038 -4.4985578602416245 2.205306432083685 -1 -1 0
956 18 2 0.07199999999999999 -0.3864018750374944 -4.859879229040196 -0.6009955022727168 -1 -1 0
791 15 2 0.077 -3.219374893393839 -6.0119755347867985 2.0941027549409506 -1 -1 0
7852 141 2 0.078 -28.75104211560613 -21.130099050303002 4.013563180559824 0 0 0
5913 106 2 0.078 -29.021564828826556 -3.130834646814594 11.425623655142557 0 -1 0
5805 104 2 0.078 -28.777274353640394 -7.854509992150755 12.757853410263884 0 -1 0
5828 105 2 0.07199999999999999 -28.695555826266055 -2.77950225007276 -0.4050590582267612 0 -1 0
5830 105 2 0.077 -28.365313914138394 -1.4991791486048558 1.6520548053089432 0 -1 0
5943 107 2 0.077 -28.290193149373625 2.913795928030425 1.3173668858468297 0 -1 0
5917 106 2 0.078 -29.12197486774562 -0.09633484134520966 11.973517000692638 0 -1 0
5887 106 2 0.077 -23.491262974953873 -4.0191094503384335 1.486336040186948 0 -1 0
6609 119 2 0.07199999999999999 -21.98423983618679 -1.7985914335698125 0.2391024177473121 0 -1 0
5885 106 1 -0.158 -24.539473750180115 -4.176117504385187 1.1242818021808734 0 -1 0
5886 106 2 0.077 -24.91314503643357 -3.1846087166235835 0.8498314435720652 0 -1 0
6618 119 2 0.078 -22.7187529099952 -1.4326808155878445 2.417780158579766 0 -1 0
5994 108 3 -0.211 -24.142393002599167 0.27873406419114843 -0.33859348 0 -1 0
5998 108 2 0.077 -24.285627124307343 -1.0056461466367597 1.2457563572177717 0 -1 0
5997 108 1 -0.158 -24.90475834962934 -0.17384130296140435 0.8270517482226987 0 -1 0
5999 108 2 0.077 -25.89153571067709 -0.5783189496608527 0.5321775054106125 0 -1 0
6000 108 1 -0.157 -25.06786438218864 0.8524599111589067 1.9216829679617582 0 -1 0
5995 108 2 0.07199999999999999 -23.094863767139 0.60102760427665 -0.04596713898282642 0 -1 0
5996 108 2 0.07199999999999999 -24.07383220423666 -0.4313565843611814 -1.201151428602235 0 -1 0
6001 108 2 0.078 -24.06662348764059 1.1134344447749558 2.300313336220935 0 -1 0
5993 108 2 0.07199999999999999 -24.68880063120738 1.1744363600013583 -0.7588260531243708 0 -1 0
6002 108 2 0.078 -25.491705929844187 1.8075210934652792 1.4788828259614095 0 -1 0
6724 121 2 0.07199999999999999 -22.312820728016273 2.999433596473339 -0.01445725506436019 0 -1 0
6105 110 2 0.07199999999999999 -24.31096426486566 3.861322950332341 0.22124067371604977 0 -1 0
6729 121 2 0.078 -23.18491490485628 3.282841017315981 2.5150556594593745 0 -1 0
6610 119 3 -0.211 -21.013113002599173 -2.384586935808862 0.3637724 0 -1 0
6612 119 2 0.07199999999999999 -21.166081802828995 -3.350348948337261 -0.2522753345732496 0 -1 0
6613 119 1 -0.158 -20.946628397490844 -2.5755483694246792 1.9237592440457727 0 -1 0
6611 119 2 0.07199999999999999 -20.133508143605418 -1.8339331240568852 -0.06201540818965185 0 -1 0
6615 119 2 0.077 -21.42282793301634 -3.56635295491407 2.2587370832760425 0 -1 0
6614 119 2 0.077 -19.853227133216045 -2.634933223228737 2.186300288146026 0 -1 0
6670 120 2 0.077 -16.711063421535297 -3.13375764827345 0.3259927962462277 0 -1 0
6727 121 2 0.077 -20.098582169296453 3.487472208633774 1.909406279253672 0 -1 0
6722 121 3 -0.211 -21.325494002599168 2.781109064191135 0.3140936 0 -1 0
6723 121 2 0.07199999999999999 -21.237722368810996 1.7093374325136708 0.5857245205928667 0 -1 0
6725 121 1 -0.158 -21.179302579974067 3.591037480254448 1.586974568440235 0 -1 0
6721 121 2 0.07199999999999999 -20.46412814999155 2.9656600996393374 -0.33364211577642644 0 -1 0
6617 119 2 0.078 -21.228672535696308 -0.4484511706982012 2.3612076684628747 0 -1 0
6782 122 2 0.077 -16.691934623660426 -1.2970885233225433 1.0358155616210059 0 -1 0
6777 122 2 0.07199999999999999 -14.970673886933682 0.32374268522113125 0.2773137697928664 0 -1 0