 # Cu4NiSi2Cr structure
  
           8  atoms
           4  atom types
 
      0.000000000000       5.218611000000  xlo xhi
      0.000000000000       4.361452243759  ylo yhi
      0.000000000000       4.172620012127  zlo zhi
     -2.353017752956       2.353017752956       1.269451814362  xy xz yz
 
Masses
 
            1   63.54600000             # Cu
            2   58.69340000             # Ni
            3   28.08500000             # Si
            4   51.99610000             # Cr
 
Atoms # atomic
 
         1    1       -0.256287747044       1.269451814362       4.172620012127
         2    1        3.785814376478       0.634725907181       2.086310006064
         3    1        3.785814376478       3.450177936242       4.172620012127
         4    1        2.609305500000       2.815452029061       2.086310006064
         5    2        2.353017752956       1.269451814362       4.172620012127
         6    3        4.042102123522       4.996178150940       2.086310006064
         7    3        4.042102123522       2.180726121880       0.000000000000
         8    4        5.218611000000       2.815452029061       2.086310006064
