ITEM: TIMESTEP
10120
ITEM: NUMBER OF ATOMS
31
ITEM: BOX BOUNDS ss ss ss
3.3980311518365347e-01 7.2247829829083301e+00
4.7486608711612206e+01 5.3037159829421299e+01
3.5479184610115745e+01 4.5798900668291076e+01
ITEM: ATOMS id type xs ys zs
19 5 0.845981 0.591496 0.320212
26 5 0.765603 0.000540487 0.159293
25 5 0.999564 0.123017 0.110574
28 5 0.631773 0.464574 0.1838
29 5 0.86419 0.572242 0.123776
31 7 0.622951 0.636855 0.000290706
24 3 0.871159 0.15333 0.177634
23 4 0.948997 0.0959491 0.286448
27 3 0.749307 0.428469 0.109371
30 6 0.673095 0.474595 0.00230372
7 5 0.127198 0.544708 0.615051
11 5 0.268959 0.99946 0.408799
12 5 0.200388 0.685345 0.410272
10 3 0.285559 0.825422 0.467161
9 4 0.199521 0.879659 0.572992
14 5 0.590663 0.768756 0.549745
15 5 0.586777 0.912145 0.390283
18 5 0.827444 0.551101 0.495239
21 5 0.999383 0.187377 0.454214
22 5 0.763197 0.0564376 0.422762
13 3 0.526902 0.754188 0.448462
17 3 0.768075 0.485465 0.398849
20 3 0.873001 0.189687 0.3829
16 4 0.591448 0.565302 0.393063
5 7 0.228533 0.472878 0.999709
2 5 0.217724 0.802187 0.892616
3 5 0.378127 0.573503 0.826112
8 5 0.000435731 0.800881 0.685894
6 3 0.150008 0.722167 0.666516
4 6 0.154552 0.47195 0.920259
1 3 0.219986 0.623524 0.839659
