31
Atoms. Timestep: 10120
3 1.8544 50.9475 44.1442
5 1.83883 51.9392 44.6907
5 2.9432 50.6699 44.0044
6 1.40389 50.1062 44.976
7 1.91325 50.1113 45.7959
3 1.3726 51.495 42.3574
5 1.21556 50.51 41.8263
5 0.342803 51.9319 42.5574
4 1.7135 52.3692 41.3923
3 2.30587 52.0682 40.3002
5 2.19158 53.0342 39.6979
5 1.71947 51.2907 39.7131
3 3.96751 51.6728 40.1072
5 4.40651 51.7536 41.1524
5 4.37975 52.5495 39.5068
4 4.41191 50.6243 39.5355
3 5.62798 50.1812 39.5952
5 6.03674 50.5455 40.5899
5 6.16436 50.7697 38.7837
3 6.3504 48.5395 39.4306
5 7.22053 48.5267 40.1665
5 5.5944 47.7999 39.842
4 6.87363 48.0192 38.4352
3 6.33771 48.3377 37.3123
5 7.22178 48.1694 36.6203
5 5.61096 47.4896 37.123
3 5.49877 49.8648 36.6079
5 4.68954 50.0652 37.376
5 6.28973 50.6629 36.7565
6 4.97405 50.1209 35.503
7 4.62881 51.0215 35.4822
