31
Atoms. Timestep: 10120
3 -42.2631 42.7741 -29.015
5 -42.6062 43.5326 -29.7836
5 -41.6691 41.9889 -29.5756
6 -43.3084 42.191 -28.6368
7 -43.7791 41.7986 -29.3821
3 -40.8951 43.7272 -28.11
5 -41.4608 44.4373 -27.4339
5 -40.4643 42.9199 -27.4349
4 -39.7599 44.3545 -28.3697
3 -39.7098 45.4167 -29.0729
5 -40.0986 46.2891 -28.459
5 -38.5788 45.5697 -29.1166
3 -40.2298 45.7095 -30.749
5 -40.5719 44.6986 -31.1304
5 -39.2504 45.9526 -31.276
4 -40.9676 46.5565 -31.3204
3 -41.806 46.1701 -32.1293
5 -41.3002 45.5159 -32.9124
5 -42.1646 47.1044 -32.6786
3 -43.1665 45.3773 -31.6309
5 -43.0603 45.3165 -30.4977
5 -43.0449 44.3192 -32.0363
4 -44.3285 45.7833 -31.9014
3 -45.4355 45.1235 -31.6382
5 -45.3884 44.9388 -30.5204
5 -45.2931 44.1267 -32.1598
3 -47.2253 45.4776 -31.9183
5 -47.2728 45.6689 -33.035
5 -47.3673 46.4804 -31.4084
6 -48.2379 44.8196 -31.6488
7 -49.0349 45.285 -31.9284
