ITEM: TIMESTEP
10120
ITEM: NUMBER OF ATOMS
31
ITEM: BOX BOUNDS ss ss ss
-4.9037868011785534e+01 -3.8575838093864732e+01
4.1795553001508566e+01 4.7107372000797440e+01
-3.3038026085321746e+01 -2.7430855937791222e+01
ITEM: ATOMS id type xs ys zs
27 3 0.173256 0.693181 0.199687
30 6 0.0764608 0.569313 0.247755
28 5 0.168708 0.729194 0.000535029
29 5 0.159681 0.881964 0.290632
31 7 0.000286751 0.656923 0.197888
4 6 0.547642 0.0744422 0.78492
1 3 0.647557 0.184225 0.717473
20 3 0.561203 0.674295 0.25096
23 4 0.450143 0.750736 0.202709
24 3 0.34433 0.626517 0.249648
5 7 0.502651 0.000564778 0.652001
2 5 0.614767 0.327019 0.580411
19 5 0.656976 0.999435 0.0640955
21 5 0.571355 0.662848 0.453042
22 5 0.57283 0.475108 0.178649
26 5 0.357936 0.438855 0.156623
25 5 0.348831 0.591755 0.449
6 3 0.778314 0.363645 0.878874
9 4 0.886821 0.481739 0.83257
16 4 0.771383 0.89629 0.306332
10 3 0.89161 0.681717 0.707155
13 3 0.841908 0.736845 0.40823
17 3 0.691252 0.823556 0.162066
3 5 0.704332 0.0363962 0.617507
7 5 0.724245 0.497326 0.999465
8 5 0.819494 0.211673 0.999276
11 5 0.854448 0.845949 0.816633
12 5 0.999713 0.710524 0.699367
14 5 0.809211 0.54653 0.340219
15 5 0.935526 0.782602 0.314243
18 5 0.739594 0.700386 0.0224052
