ITEM: TIMESTEP
10120
ITEM: NUMBER OF ATOMS
31
ITEM: BOX BOUNDS ss ss ss
4.9863920070288465e+01 5.7837059127990202e+01
2.2504014490431516e+01 2.9892953576204132e+01
2.3712900466738084e+01 3.0210214102757561e+01
ITEM: ATOMS id type xs ys zs
13 3 0.44798 0.152064 0.484956
11 5 0.386949 0.0898599 0.15349
14 5 0.497168 0.026506 0.567109
16 4 0.301141 0.165123 0.540114
18 5 0.367183 0.331212 0.752126
19 5 0.285729 0.107228 0.820693
21 5 0.000376263 0.323007 0.637489
22 5 0.021327 0.213144 0.885517
17 3 0.267973 0.226587 0.711854
20 3 0.0825169 0.318425 0.780577
23 4 0.0716321 0.462756 0.881526
12 5 0.588822 0.000406012 0.234171
15 5 0.520872 0.272694 0.546531
10 3 0.506966 0.126598 0.239948
9 4 0.572742 0.247508 0.133396
7 5 0.778521 0.255107 0.000461729
8 5 0.782283 0.199899 0.274757
6 3 0.727019 0.295803 0.156965
26 5 0.0971708 0.608955 0.634619
25 5 0.00737811 0.702062 0.870215
28 5 0.406352 0.711508 0.785039
29 5 0.298401 0.818256 0.999538
24 3 0.117209 0.621827 0.806268
27 3 0.292213 0.794884 0.827372
31 7 0.420823 0.999594 0.793984
30 6 0.316491 0.947444 0.747674
5 7 0.999624 0.671817 0.244759
4 6 0.982079 0.544508 0.220514
2 5 0.771625 0.560372 0.352239
1 3 0.831651 0.51066 0.204391
3 5 0.783507 0.60077 0.0759737
