31
Atoms. Timestep: 10120
3 56.4948 26.2773 25.0409
5 56.0162 26.6446 26.0015
5 56.1109 26.9431 24.2065
6 57.6942 26.5274 25.1457
7 57.8341 27.468 25.3032
3 55.6605 24.6897 24.7328
5 56.0712 24.389 23.7159
5 56.1012 23.9811 25.4981
4 54.4305 24.3328 24.5796
3 53.906 23.4394 25.2719
5 52.9491 23.168 24.7102
5 54.5587 22.507 25.2344
3 53.4357 23.6276 26.8638
5 53.8279 22.6999 27.3976
5 54.0169 24.5189 27.2639
4 52.265 23.7241 27.2222
3 52.0005 24.1783 28.338
5 52.7915 24.9513 28.5997
5 52.1421 23.2963 29.0452
3 50.5218 24.8568 28.7846
5 49.8669 24.8907 27.8549
5 50.034 24.0789 29.4664
4 50.4351 25.9233 29.4405
3 50.7984 27.0987 28.9515
5 49.9227 27.6915 29.367
5 50.6387 27.0035 27.8362
3 52.1938 28.3774 29.0886
5 53.1038 27.7613 28.8135
5 52.2431 28.5501 30.2072
6 52.3873 29.5046 28.5708
7 53.2192 29.89 28.8717
