ITEM: TIMESTEP
10120
ITEM: NUMBER OF ATOMS
31
ITEM: BOX BOUNDS ss ss ss
8.3406558482592068e+00 1.7225902235180854e+01
-6.8394853052185978e+00 -2.3649938363851648e+00
6.6218665301255243e+01 7.7663492043082570e+01
ITEM: ATOMS id type xs ys zs
22 5 0.466935 0.388517 0.186235
21 5 0.553349 0.0173491 0.19445
26 5 0.725053 0.329723 0.0521565
25 5 0.616597 0.650751 0.10495
28 5 0.979006 0.60103 0.103941
29 5 0.876081 0.918597 0.163277
31 7 0.999662 0.99933 0.0080353
20 3 0.556288 0.252146 0.233563
24 3 0.718772 0.506468 0.123149
27 3 0.877561 0.750227 0.0891867
23 4 0.684265 0.351998 0.215165
30 6 0.905355 0.894671 0.000262127
12 5 0.0774988 0.470187 0.489887
11 5 0.189756 0.763614 0.423433
14 5 0.385653 0.340898 0.568757
15 5 0.275426 0.144193 0.457123
18 5 0.4218 0.000670467 0.367189
10 3 0.184609 0.606278 0.501978
13 3 0.328345 0.367879 0.480477
9 4 0.169071 0.780544 0.587418
16 4 0.427322 0.415155 0.409206
17 3 0.495293 0.209221 0.366678
19 5 0.598072 0.160719 0.423171
5 7 0.151654 0.720745 0.999738
2 5 0.274916 0.630471 0.84585
3 5 0.181596 0.992537 0.850175
7 5 0.000337638 0.837726 0.681706
8 5 0.0767334 0.458583 0.677698
6 3 0.108472 0.702494 0.686627
4 6 0.0940157 0.668381 0.931354
1 3 0.160834 0.743503 0.84132
