31
Atoms. Timestep: 10120
3 9.7697 -3.51269 75.8474
5 10.7833 -4.01845 75.8993
5 9.95418 -2.39839 75.9488
6 9.17601 -3.84882 76.8778
7 9.68814 -3.61452 77.6605
3 9.30446 -3.69618 74.077
5 8.34366 -3.09109 74.0207
5 9.02245 -4.78756 73.9748
4 9.84289 -3.34695 72.9416
3 9.98095 -4.1267 71.9637
5 10.0267 -3.4227 71.0648
5 9.02925 -4.73564 71.8253
3 11.2581 -5.19342 71.7176
5 11.7673 -5.31414 72.728
5 10.7879 -6.1943 71.4504
4 12.1375 -4.98188 70.902
3 12.7415 -5.90333 70.4152
5 12.0885 -6.83649 70.4211
5 13.6547 -6.12035 71.0618
3 13.2834 -5.71126 68.8918
5 13.2573 -6.76186 68.4441
5 12.4895 -5.10107 68.3501
4 14.4205 -5.26447 68.6812
3 14.7271 -4.5733 67.6281
5 13.8193 -3.9277 67.4198
5 14.7829 -5.36414 66.8156
3 16.138 -3.4826 67.2394
5 17.0394 -4.15018 67.4082
5 16.1249 -2.72923 68.0873
6 16.385 -2.83629 66.2217
7 17.2229 -2.36799 66.3106
