LAMMPS data file via write_data, version 29 Sep 2021, timestep = 10120

31 atoms
7 atom types
30 bonds
6 bond types
53 angles
9 angle types
34 dihedrals
14 dihedral types

-37.294421039583334 -31.883672999531633 xlo xhi
43.67749279486036 55.78871767597184 ylo yhi
-14.593458588343138 -8.679857994511034 zlo zhi

Masses

1 15.9994
2 1.008
3 12.011
4 15.9994
5 1.008
6 15.9994
7 1.008

Pair Coeffs # lj/cut

1 0 0
2 0 0
3 0 0
4 0 0
5 0.05 1.6036
6 0 0
7 0.05 1.6036

Bond Coeffs # harmonic

1 0 0.9572
2 222.35 1.53
3 308.79 1.1111
4 359.76 1.1415
5 427.715 1.142
6 544.635 0.96

Angle Coeffs # charmm

1 0 104.52 0 0
2 50 109 0 0
3 26.5 110.1 22.53 2.179
4 45 111.5 0 0
5 13.0258 109.4 0 0
6 35.5 109 5.4 1.802
7 55 108.89 0 0
8 75.7 110.1 0 0
9 95 109.7 0 0

Dihedral Coeffs # charmm

1 0.57 1 0 0
2 0.29 2 0 0
3 0.43 3 0 0
4 0.59 1 180 0
5 1.16 2 0 0
6 0.12 1 0 0
7 0.42 2 0 0
8 0.29 3 0 0
9 2.87 1 180 0
10 0.03 2 0 0
11 0.23 3 0 0
12 1.36 1 180 0
13 0.16 2 0 0
14 1.01 3 0 0

Atoms # full

5 1 7 0 -34.324456049571666 43.68049279486036 -8.726006451008137 0 0 0
2 1 5 0 -33.54545260127534 45.65341223082882 -8.682857994511034 0 0 0
3 1 5 0 -34.915975030639956 45.373293864464145 -9.846720609081746 0 0 0
7 1 5 0 -31.886672999531633 46.12538322192279 -10.62300411097566 0 0 0
8 1 5 0 -33.12967476625597 45.697453203166745 -11.892638935833766 0 0 0
12 1 5 0 -32.316562861136966 47.418575029248075 -13.006203641316004 0 0 0
1 1 3 0 -33.81761863091271 45.15813692171164 -9.665811179877117 0 0 0
6 1 3 0 -32.97904039719774 46.244961953422006 -10.913634530708933 0 0 0
9 1 4 0 -33.01945326737069 47.53802485108103 -11.174998201169979 0 0 0
4 1 6 0 -33.746806559641506 43.937975036658344 -9.45408176364805 0 0 0
11 1 5 0 -32.30311201688151 49.012576782874675 -12.13687770562889 0 0 0
14 1 5 0 -35.04497155702416 47.927930262056066 -13.208808425870046 0 0 0
15 1 5 0 -33.81546327331686 48.55728488108198 -14.395287259740607 0 0 0
18 1 5 0 -35.04510943878939 51.378092293819535 -14.170081342871836 0 0 0
19 1 5 0 -33.53769820793186 50.43833990791818 -14.590458588343138 0 0 0
21 1 5 0 -33.4347027685626 51.620356966438365 -11.713997052952116 0 0 0
22 1 5 0 -32.19046822782111 51.60211367002982 -13.027250822755247 0 0 0
10 1 3 0 -32.941553298238496 48.08519020252031 -12.327815996427836 0 0 0
13 1 3 0 -34.19311838341925 48.67501888612278 -13.328236393449227 0 0 0
17 1 3 0 -34.193712449902605 50.766331236889705 -13.72260168498951 0 0 0
16 1 4 0 -34.773761653714914 49.76225799868308 -13.314794379934538 0 0 0
26 1 5 0 -34.89212802374714 53.43280418197548 -11.893921589100783 0 0 0
25 1 5 0 -33.80137450072241 54.80114605340511 -12.401867087805346 0 0 0
28 1 5 0 -35.23913057578386 55.352167422184365 -14.504775201598148 0 0 0
29 1 5 0 -36.293732459205074 53.894533593101535 -14.248857063319 0 0 0
31 1 7 0 -37.291421039583334 55.78571767597184 -14.129088701745072 0 0 0
20 1 3 0 -33.278998875331446 51.877959797485424 -12.811037967442502 0 0 0
24 1 3 0 -34.373779117774795 53.89720765137584 -12.78460559031577 0 0 0
23 1 4 0 -33.29893073635577 53.13119844996498 -12.991458617734311 0 0 0
27 1 3 0 -35.80549108983258 54.767292825445146 -13.717388144440847 0 0 0
30 1 6 0 -36.758494995677516 55.518301632591445 -13.370195439313209 0 0 0

Velocities

5 0 0 0
2 -0 0 -0
3 -0 -0 0
7 -0 -0 -0
8 -0 -0 0
12 0 -0 0
1 -0 -0 -0
6 -0 0 0
9 0 0 -0
4 0 -0 0
11 0 -0 -0
14 -0 -0 -0
15 0 0 0
18 0 0 -0
19 0 0 0
21 0 0 0
22 0 -0 -0
10 0 -0 -0
13 -0 -0 -0
17 0 -0 0
16 0 0 0
26 0 -0 0
25 -0 0 0
28 -0 -0 -0
29 -0 -0 0
31 -0 -0 -0
20 0 -0 -0
24 -0 0 0
23 -0 -0 -0
27 -0 -0 0
30 0 0 -0

Bonds

1 2 1 6
2 5 1 4
3 4 1 2
4 4 1 3
5 4 6 9
6 4 6 7
7 4 6 8
8 4 9 10
9 6 4 5
10 2 10 13
11 4 10 11
12 4 10 12
13 4 13 16
14 4 13 14
15 4 13 15
16 2 17 20
17 4 17 18
18 4 17 19
19 4 16 17
20 4 20 23
21 4 20 21
22 4 20 22
23 2 24 27
24 4 24 25
25 4 24 26
26 4 23 24
27 5 27 30
28 4 27 28
29 4 27 29
30 6 30 31

Angles

1 6 2 1 3
2 7 2 1 4
3 3 2 1 6
4 7 3 1 4
5 3 3 1 6
6 8 4 1 6
7 3 1 6 7
8 3 1 6 8
9 4 1 6 9
10 6 7 6 8
11 5 7 6 9
12 5 8 6 9
13 9 6 9 10
14 2 1 4 5
15 5 9 10 11
16 5 9 10 12
17 4 9 10 13
18 6 11 10 12
19 3 11 10 13
20 3 12 10 13
21 3 10 13 14
22 3 10 13 15
23 4 10 13 16
24 6 14 13 15
25 5 14 13 16
26 5 15 13 16
27 5 16 17 18
28 5 16 17 19
29 4 16 17 20
30 6 18 17 19
31 3 18 17 20
32 3 19 17 20
33 9 13 16 17
34 3 17 20 21
35 3 17 20 22
36 4 17 20 23
37 6 21 20 22
38 5 21 20 23
39 5 22 20 23
40 5 23 24 25
41 5 23 24 26
42 4 23 24 27
43 6 25 24 26
44 3 25 24 27
45 3 26 24 27
46 9 20 23 24
47 3 24 27 28
48 3 24 27 29
49 8 24 27 30
50 6 28 27 29
51 7 28 27 30
52 7 29 27 30
53 2 27 30 31

Dihedrals

1 6 6 1 4 5
2 7 6 1 4 5
3 8 6 1 4 5
4 12 4 1 6 9
5 13 4 1 6 9
6 14 4 1 6 9
7 1 1 6 9 10
8 2 1 6 9 10
9 3 1 6 9 10
10 1 6 9 10 13
11 2 6 9 10 13
12 3 6 9 10 13
13 4 9 10 13 16
14 5 9 10 13 16
15 1 10 13 16 17
16 2 10 13 16 17
17 3 10 13 16 17
18 4 16 17 20 23
19 5 16 17 20 23
20 1 13 16 17 20
21 2 13 16 17 20
22 3 13 16 17 20
23 1 17 20 23 24
24 2 17 20 23 24
25 3 17 20 23 24
26 12 23 24 27 30
27 13 23 24 27 30
28 14 23 24 27 30
29 1 20 23 24 27
30 2 20 23 24 27
31 3 20 23 24 27
32 6 24 27 30 31
33 7 24 27 30 31
34 8 24 27 30 31
