LAMMPS data file via write_data, version 29 Sep 2021, timestep = 10120

31 atoms
7 atom types
30 bonds
6 bond types
53 angles
9 angle types
34 dihedrals
14 dihedral types

8.340655848259207 17.225902235180854 xlo xhi
-6.839485305218598 -2.364993836385165 ylo yhi
66.21866530125524 77.66349204308257 zlo zhi

Masses

1 15.9994
2 1.008
3 12.011
4 15.9994
5 1.008
6 15.9994
7 1.008

Pair Coeffs # lj/cut

1 0 0
2 0 0
3 0 0
4 0 0
5 0.05 1.6036
6 0 0
7 0.05 1.6036

Bond Coeffs # harmonic

1 0 0.9572
2 222.35 1.53
3 308.79 1.1111
4 359.76 1.1415
5 427.715 1.142
6 544.635 0.96

Angle Coeffs # charmm

1 0 104.52 0 0
2 50 109 0 0
3 26.5 110.1 22.53 2.179
4 45 111.5 0 0
5 13.0258 109.4 0 0
6 35.5 109 5.4 1.802
7 55 108.89 0 0
8 75.7 110.1 0 0
9 95 109.7 0 0

Dihedral Coeffs # charmm

1 0.57 1 0 0
2 0.29 2 0 0
3 0.43 3 0 0
4 0.59 1 180 0
5 1.16 2 0 0
6 0.12 1 0 0
7 0.42 2 0 0
8 0.29 3 0 0
9 2.87 1 180 0
10 0.03 2 0 0
11 0.23 3 0 0
12 1.36 1 180 0
13 0.16 2 0 0
14 1.01 3 0 0

Atoms # full

22 1 5 0 12.489487699411688 -5.101070583175749 68.35008835665009 0 0 0
21 1 5 0 13.257294647061169 -6.761856912440152 68.4441081475076 0 0 0
26 1 5 0 14.782930557906957 -5.364141783558481 66.81558742951292 0 0 0
25 1 5 0 13.819273545130036 -3.9277044174972655 67.41980371903904 0 0 0
28 1 5 0 17.0393647057128 -4.150181167334417 67.40824986571769 0 0 0
29 1 5 0 16.12485174491284 -2.7292302295980373 68.0873435060864 0 0 0
31 1 7 0 17.222902235180854 -2.367993836385165 66.31062786612787 0 0 0
20 1 3 0 13.283407777186522 -5.711262409447157 68.89175238262094 0 0 0
24 1 3 0 14.727122332422903 -4.573298257429487 67.62808752396546 0 0 0
27 1 3 0 16.13800066768681 -3.482600432954985 67.23939211381001 0 0 0
23 1 4 0 14.420521490042272 -5.2644716824104005 68.68119580534476 0 0 0
30 1 6 0 16.38495471404194 -2.836289011309785 66.22166530125524 0 0 0
12 1 5 0 9.0292516434425 -4.735637476151098 71.82533383692166 0 0 0
11 1 5 0 10.026682002699394 -3.4226992750283203 71.06478173658681 0 0 0
14 1 5 0 11.767274171679949 -5.31413974374528 72.72798976302725 0 0 0
15 1 5 0 10.787880523880785 -6.194295814169866 71.45036368611198 0 0 0
18 1 5 0 12.088450607188507 -6.836485305218598 70.4210809808856 0 0 0
10 1 3 0 9.980947970490389 -4.126698418626879 71.96371414502202 0 0 0
13 1 3 0 11.258081188768003 -5.193415137516717 71.71763563936784 0 0 0
9 1 4 0 9.842891719303983 -3.346945903237903 72.94156138773144 0 0 0
16 1 4 0 12.13751591613566 -4.981876475298674 70.90195474720237 0 0 0
17 1 3 0 12.741455118199587 -5.903327935509991 70.4152280788287 0 0 0
19 1 5 0 13.654676181841626 -6.120347718854525 71.06178056838166 0 0 0
5 1 7 0 9.688142876702786 -3.614517158951025 77.66049204308257 0 0 0
2 1 5 0 10.783348085558174 -4.018446685431952 75.8992767323178 0 0 0
3 1 5 0 9.954178024131267 -2.398388723561187 75.94877262797789 0 0 0
7 1 5 0 8.343655848259207 -3.091089648885094 74.02067660657683 0 0 0
8 1 5 0 9.022451227756406 -4.787558838177438 73.97479912698053 0 0 0
6 1 3 0 9.304456350472256 -3.6961822776449678 74.07698898782522 0 0 0
4 1 6 0 9.176008460034339 -3.8488216810467195 76.87784627676756 0 0 0
1 1 3 0 9.769701126084055 -3.512686838077966 75.84743068742335 0 0 0

Velocities

22 0 0 0
21 -0 -0 0
26 0 0 0
25 -0 0 0
28 -0 -0 -0
29 0 -0 0
31 -0 0 0
20 0 -0 -0
24 -0 0 0
27 -0 -0 0
23 0 -0 -0
30 0 -0 -0
12 0 0 0
11 -0 -0 -0
14 0 0 -0
15 -0 0 -0
18 0 -0 -0
10 0 -0 0
13 0 -0 0
9 -0 0 -0
16 0 -0 0
17 -0 0 -0
19 -0 -0 -0
5 -0 0 0
2 0 0 -0
3 -0 0 0
7 -0 -0 0
8 -0 -0 -0
6 -0 -0 -0
4 0 -0 -0
1 -0 0 -0

Bonds

1 4 20 23
2 4 20 21
3 4 20 22
4 2 24 27
5 4 24 25
6 4 24 26
7 5 27 30
8 4 27 28
9 4 27 29
10 4 23 24
11 6 30 31
12 2 10 13
13 4 10 11
14 4 10 12
15 4 13 16
16 4 13 14
17 4 13 15
18 4 9 10
19 4 16 17
20 2 17 20
21 4 17 18
22 4 17 19
23 4 6 9
24 4 6 7
25 4 6 8
26 6 4 5
27 2 1 6
28 5 1 4
29 4 1 2
30 4 1 3

Angles

1 3 17 20 21
2 3 17 20 22
3 4 17 20 23
4 6 21 20 22
5 5 21 20 23
6 5 22 20 23
7 5 23 24 25
8 5 23 24 26
9 4 23 24 27
10 6 25 24 26
11 3 25 24 27
12 3 26 24 27
13 3 24 27 28
14 3 24 27 29
15 8 24 27 30
16 6 28 27 29
17 7 28 27 30
18 7 29 27 30
19 9 20 23 24
20 2 27 30 31
21 5 9 10 11
22 5 9 10 12
23 4 9 10 13
24 6 11 10 12
25 3 11 10 13
26 3 12 10 13
27 3 10 13 14
28 3 10 13 15
29 4 10 13 16
30 6 14 13 15
31 5 14 13 16
32 5 15 13 16
33 9 6 9 10
34 9 13 16 17
35 5 16 17 18
36 5 16 17 19
37 4 16 17 20
38 6 18 17 19
39 3 18 17 20
40 3 19 17 20
41 3 1 6 7
42 3 1 6 8
43 4 1 6 9
44 6 7 6 8
45 5 7 6 9
46 5 8 6 9
47 2 1 4 5
48 6 2 1 3
49 7 2 1 4
50 3 2 1 6
51 7 3 1 4
52 3 3 1 6
53 8 4 1 6

Dihedrals

1 1 17 20 23 24
2 2 17 20 23 24
3 3 17 20 23 24
4 12 23 24 27 30
5 13 23 24 27 30
6 14 23 24 27 30
7 6 24 27 30 31
8 7 24 27 30 31
9 8 24 27 30 31
10 1 20 23 24 27
11 2 20 23 24 27
12 3 20 23 24 27
13 4 9 10 13 16
14 5 9 10 13 16
15 1 10 13 16 17
16 2 10 13 16 17
17 3 10 13 16 17
18 1 6 9 10 13
19 2 6 9 10 13
20 3 6 9 10 13
21 1 13 16 17 20
22 2 13 16 17 20
23 3 13 16 17 20
24 4 16 17 20 23
25 5 16 17 20 23
26 1 1 6 9 10
27 2 1 6 9 10
28 3 1 6 9 10
29 6 6 1 4 5
30 7 6 1 4 5
31 8 6 1 4 5
32 12 4 1 6 9
33 13 4 1 6 9
34 14 4 1 6 9
