LAMMPS data file via write_data, version 29 Sep 2021, timestep = 10120

31 atoms
7 atom types
30 bonds
6 bond types
53 angles
9 angle types
34 dihedrals
14 dihedral types

31.109845719419596 37.226718565726124 xlo xhi
88.89551551112815 99.13614856333315 ylo yhi
-7.245912137273605 1.5184977589205013 zlo zhi

Masses

1 15.9994
2 1.008
3 12.011
4 15.9994
5 1.008
6 15.9994
7 1.008

Pair Coeffs # lj/cut

1 0 0
2 0 0
3 0 0
4 0 0
5 0.05 1.6036
6 0 0
7 0.05 1.6036

Bond Coeffs # harmonic

1 0 0.9572
2 222.35 1.53
3 308.79 1.1111
4 359.76 1.1415
5 427.715 1.142
6 544.635 0.96

Angle Coeffs # charmm

1 0 104.52 0 0
2 50 109 0 0
3 26.5 110.1 22.53 2.179
4 45 111.5 0 0
5 13.0258 109.4 0 0
6 35.5 109 5.4 1.802
7 55 108.89 0 0
8 75.7 110.1 0 0
9 95 109.7 0 0

Dihedral Coeffs # charmm

1 0.57 1 0 0
2 0.29 2 0 0
3 0.43 3 0 0
4 0.59 1 180 0
5 1.16 2 0 0
6 0.12 1 0 0
7 0.42 2 0 0
8 0.29 3 0 0
9 2.87 1 180 0
10 0.03 2 0 0
11 0.23 3 0 0
12 1.36 1 180 0
13 0.16 2 0 0
14 1.01 3 0 0

Atoms # full

11 1 5 0 33.51401301224033 92.29410891264322 -3.2897698956564403 0 0 0
17 1 3 0 32.387179163699095 95.51833991699276 -3.1481554454828644 0 0 0
16 1 4 0 31.856699980100043 94.35372354658658 -3.2255543999347487 0 0 0
21 1 5 0 31.957297158630194 97.63564812073041 -4.004319876938014 0 0 0
22 1 5 0 32.50916142680145 96.48690031999679 -5.307136813806916 0 0 0
26 1 5 0 34.494159159879295 99.13314856333315 -5.46264811261547 0 0 0
25 1 5 0 33.59557260396731 97.85620558157372 -6.397272540418353 0 0 0
29 1 5 0 35.73478867447476 96.28395451566524 -6.1603503422533 0 0 0
28 1 5 0 36.590795717436386 97.6375624130007 -5.279135696822641 0 0 0
31 1 7 0 37.223718565726124 97.28998833845694 -7.2429121372736045 0 0 0
20 1 3 0 32.772446213882354 96.88988597454315 -4.282551985715342 0 0 0
24 1 3 0 34.32590394334269 98.00717043369872 -5.540976512650402 0 0 0
23 1 4 0 33.74745868077968 97.74197084718732 -4.423889856462576 0 0 0
27 1 3 0 35.85273610749998 97.41270468951639 -6.112916643794694 0 0 0
30 1 6 0 36.3823398134654 97.74675376034644 -7.139536564923007 0 0 0
5 1 7 0 35.419733997693044 88.89851551112815 1.5154977589205014 0 0 0
2 1 5 0 33.91234661078302 90.32570165249587 1.1922149093266496 0 0 0
3 1 5 0 34.0473701323007 89.02464720637359 -0.07906627877733356 0 0 0
7 1 5 0 34.95069153288064 90.77028784007943 -1.8122929997118369 0 0 0
8 1 5 0 34.879799518580796 92.093987641763 -0.5440507981629479 0 0 0
6 1 3 0 34.343965661099595 91.17731228008095 -0.9430493558343268 0 0 0
4 1 6 0 35.59764544326983 89.56451185158456 0.8422352576028627 0 0 0
1 1 3 0 34.55714172097592 89.94932335136538 0.33735453304907376 0 0 0
9 1 4 0 33.2885641421259 91.6282878242409 -1.5047386319231988 0 0 0
15 1 5 0 31.112845719419596 92.81261159637083 -2.3957376774795787 0 0 0
19 1 5 0 33.35653325477282 95.34919659903386 -2.587692704129162 0 0 0
12 1 5 0 34.164967214750696 93.32845466005394 -1.9185195557558574 0 0 0
14 1 5 0 31.859764281856396 94.05659102001472 -1.288494688832462 0 0 0
10 1 3 0 33.31430865053124 92.6333682583833 -2.2183140050367447 0 0 0
13 1 3 0 31.98438391744989 93.54665355388899 -2.299458033554669 0 0 0
18 1 5 0 31.65246190845099 96.00262708965285 -2.4292776238330362 0 0 0

Velocities

11 -0 -0 0
17 -0 -0 0
16 0 -0 -0
21 0 0 -0
22 0 -0 0
26 0 0 -0
25 0 -0 -0
29 0 -0 0
28 -0 0 0
31 -0 0 -0
20 0 -0 -0
24 -0 0 0
23 -0 0 0
27 0 -0 0
30 -0 0 -0
5 -0 -0 -0
2 -0 0 -0
3 0 -0 0
7 0 0 -0
8 0 -0 -0
6 0 -0 -0
4 -0 -0 -0
1 0 0 0
9 0 0 0
15 -0 0 -0
19 -0 -0 -0
12 0 -0 -0
14 0 -0 0
10 -0 -0 -0
13 0 0 0
18 -0 0 -0

Bonds

1 2 17 20
2 4 17 18
3 4 17 19
4 4 16 17
5 4 20 23
6 4 20 21
7 4 20 22
8 2 24 27
9 4 24 25
10 4 24 26
11 4 23 24
12 5 27 30
13 4 27 28
14 4 27 29
15 6 30 31
16 4 6 9
17 4 6 7
18 4 6 8
19 6 4 5
20 2 1 6
21 5 1 4
22 4 1 2
23 4 1 3
24 4 9 10
25 2 10 13
26 4 10 11
27 4 10 12
28 4 13 16
29 4 13 14
30 4 13 15

Angles

1 5 16 17 18
2 5 16 17 19
3 4 16 17 20
4 6 18 17 19
5 3 18 17 20
6 3 19 17 20
7 9 13 16 17
8 3 17 20 21
9 3 17 20 22
10 4 17 20 23
11 6 21 20 22
12 5 21 20 23
13 5 22 20 23
14 5 23 24 25
15 5 23 24 26
16 4 23 24 27
17 6 25 24 26
18 3 25 24 27
19 3 26 24 27
20 9 20 23 24
21 3 24 27 28
22 3 24 27 29
23 8 24 27 30
24 6 28 27 29
25 7 28 27 30
26 7 29 27 30
27 2 27 30 31
28 3 1 6 7
29 3 1 6 8
30 4 1 6 9
31 6 7 6 8
32 5 7 6 9
33 5 8 6 9
34 2 1 4 5
35 6 2 1 3
36 7 2 1 4
37 3 2 1 6
38 7 3 1 4
39 3 3 1 6
40 8 4 1 6
41 9 6 9 10
42 5 9 10 11
43 5 9 10 12
44 4 9 10 13
45 6 11 10 12
46 3 11 10 13
47 3 12 10 13
48 3 10 13 14
49 3 10 13 15
50 4 10 13 16
51 6 14 13 15
52 5 14 13 16
53 5 15 13 16

Dihedrals

1 4 16 17 20 23
2 5 16 17 20 23
3 1 13 16 17 20
4 2 13 16 17 20
5 3 13 16 17 20
6 1 17 20 23 24
7 2 17 20 23 24
8 3 17 20 23 24
9 12 23 24 27 30
10 13 23 24 27 30
11 14 23 24 27 30
12 1 20 23 24 27
13 2 20 23 24 27
14 3 20 23 24 27
15 6 24 27 30 31
16 7 24 27 30 31
17 8 24 27 30 31
18 1 1 6 9 10
19 2 1 6 9 10
20 3 1 6 9 10
21 6 6 1 4 5
22 7 6 1 4 5
23 8 6 1 4 5
24 12 4 1 6 9
25 13 4 1 6 9
26 14 4 1 6 9
27 1 6 9 10 13
28 2 6 9 10 13
29 3 6 9 10 13
30 4 9 10 13 16
31 5 9 10 13 16
32 1 10 13 16 17
33 2 10 13 16 17
34 3 10 13 16 17
