LAMMPS data file via write_data, version 29 Sep 2021, timestep = 10120

31 atoms
7 atom types
30 bonds
6 bond types
53 angles
9 angle types
34 dihedrals
14 dihedral types

-96.85408925568443 -90.63861182609625 xlo xhi
60.366808263840156 66.53374341210011 ylo yhi
-87.65380095476557 -77.30319210355803 zlo zhi

Masses

1 15.9994
2 1.008
3 12.011
4 15.9994
5 1.008
6 15.9994
7 1.008

Pair Coeffs # lj/cut

1 0 0
2 0 0
3 0 0
4 0 0
5 0.05 1.6036
6 0 0
7 0.05 1.6036

Bond Coeffs # harmonic

1 0 0.9572
2 222.35 1.53
3 308.79 1.1111
4 359.76 1.1415
5 427.715 1.142
6 544.635 0.96

Angle Coeffs # charmm

1 0 104.52 0 0
2 50 109 0 0
3 26.5 110.1 22.53 2.179
4 45 111.5 0 0
5 13.0258 109.4 0 0
6 35.5 109 5.4 1.802
7 55 108.89 0 0
8 75.7 110.1 0 0
9 95 109.7 0 0

Dihedral Coeffs # charmm

1 0.57 1 0 0
2 0.29 2 0 0
3 0.43 3 0 0
4 0.59 1 180 0
5 1.16 2 0 0
6 0.12 1 0 0
7 0.42 2 0 0
8 0.29 3 0 0
9 2.87 1 180 0
10 0.03 2 0 0
11 0.23 3 0 0
12 1.36 1 180 0
13 0.16 2 0 0
14 1.01 3 0 0

Atoms # full

30 1 6 0 -92.94776737580165 64.81450288578048 -86.88672871522519 0 0 0
27 1 3 0 -92.3882100583166 64.49992397681189 -85.88306706222923 0 0 0
24 1 3 0 -92.98804734096787 64.87194916087033 -84.33689622490235 0 0 0
26 1 5 0 -93.15165099417199 65.99625280216638 -84.32899116803712 0 0 0
25 1 5 0 -94.01023212825785 64.37399997467517 -84.28710164518972 0 0 0
28 1 5 0 -91.34480508425086 64.9484732170732 -85.92993843454947 0 0 0
29 1 5 0 -92.27142851933212 63.36952444688813 -85.90884069987231 0 0 0
31 1 7 0 -92.44271882447012 64.5187377806462 -87.65080095476557 0 0 0
23 1 4 0 -92.41963593357039 64.56573772659371 -83.27311715552167 0 0 0
17 1 3 0 -91.51444046698128 65.48786635953083 -81.08332878332081 0 0 0
20 1 3 0 -92.66842218645434 65.1759651761451 -82.23365617265415 0 0 0
18 1 5 0 -91.11645717380271 66.53074341210011 -81.31833123794708 0 0 0
19 1 5 0 -90.65731045672692 64.76088814528424 -81.2547193220673 0 0 0
21 1 5 0 -93.12526669739182 66.18168957648612 -82.50546634613856 0 0 0
22 1 5 0 -93.47230345220979 64.57096599237904 -81.69816763728726 0 0 0
4 1 6 0 -96.56181243997503 61.235117492910646 -79.58148900782989 0 0 0
1 1 3 0 -95.33754578970158 61.40819979395408 -79.61105013971444 0 0 0
9 1 4 0 -92.93306766079318 62.55840140401056 -78.42805990853772 0 0 0
16 1 4 0 -91.76490495180173 65.53512143151603 -79.89576332218847 0 0 0
6 1 3 0 -94.22084673998481 62.3359218712599 -78.47667189558385 0 0 0
10 1 3 0 -92.43256744209404 63.68742272976251 -78.18549468789239 0 0 0
13 1 3 0 -91.45380431893682 64.56864824898125 -79.23079581935484 0 0 0
5 1 7 0 -96.85108925568443 60.70065863982974 -80.33012231385956 0 0 0
2 1 5 0 -94.88191623175054 60.369808263840156 -79.62190927607726 0 0 0
3 1 5 0 -95.11737321688709 61.87249858595403 -80.62185178817253 0 0 0
7 1 5 0 -94.72437849989976 63.34266497624973 -78.35714434957421 0 0 0
8 1 5 0 -94.35645542734669 61.770723405162265 -77.49977907516713 0 0 0
12 1 5 0 -91.7374559421409 63.46072450621305 -77.30619210355803 0 0 0
11 1 5 0 -93.2107601550367 64.41510471439734 -77.79040389463975 0 0 0
14 1 5 0 -90.94877989282517 63.81599803694403 -79.9149215892362 0 0 0
15 1 5 0 -90.64161182609625 65.0094338109766 -78.5621284529671 0 0 0

Velocities

30 -0 -0 0
27 0 0 -0
24 -0 -0 0
26 -0 -0 0
25 0 -0 0
28 -0 0 -0
29 0 0 -0
31 0 -0 0
23 0 0 -0
17 0 0 -0
20 0 0 -0
18 -0 0 -0
19 -0 -0 -0
21 -0 -0 0
22 0 -0 0
4 0 -0 0
1 -0 0 -0
9 0 -0 0
16 -0 -0 -0
6 0 -0 -0
10 -0 0 -0
13 -0 0 0
5 -0 0 0
2 0 0 -0
3 -0 0 0
7 -0 -0 -0
8 -0 0 0
12 -0 0 0
11 -0 -0 0
14 0 0 -0
15 0 0 -0

Bonds

1 6 30 31
2 5 27 30
3 4 27 28
4 4 27 29
5 2 24 27
6 4 24 25
7 4 24 26
8 4 23 24
9 2 17 20
10 4 17 18
11 4 17 19
12 4 20 23
13 4 20 21
14 4 20 22
15 6 4 5
16 2 1 6
17 5 1 4
18 4 1 2
19 4 1 3
20 4 9 10
21 4 16 17
22 4 6 9
23 4 6 7
24 4 6 8
25 2 10 13
26 4 10 11
27 4 10 12
28 4 13 16
29 4 13 14
30 4 13 15

Angles

1 2 27 30 31
2 3 24 27 28
3 3 24 27 29
4 8 24 27 30
5 6 28 27 29
6 7 28 27 30
7 7 29 27 30
8 5 23 24 25
9 5 23 24 26
10 4 23 24 27
11 6 25 24 26
12 3 25 24 27
13 3 26 24 27
14 9 20 23 24
15 5 16 17 18
16 5 16 17 19
17 4 16 17 20
18 6 18 17 19
19 3 18 17 20
20 3 19 17 20
21 3 17 20 21
22 3 17 20 22
23 4 17 20 23
24 6 21 20 22
25 5 21 20 23
26 5 22 20 23
27 2 1 4 5
28 6 2 1 3
29 7 2 1 4
30 3 2 1 6
31 7 3 1 4
32 3 3 1 6
33 8 4 1 6
34 9 6 9 10
35 9 13 16 17
36 3 1 6 7
37 3 1 6 8
38 4 1 6 9
39 6 7 6 8
40 5 7 6 9
41 5 8 6 9
42 5 9 10 11
43 5 9 10 12
44 4 9 10 13
45 6 11 10 12
46 3 11 10 13
47 3 12 10 13
48 3 10 13 14
49 3 10 13 15
50 4 10 13 16
51 6 14 13 15
52 5 14 13 16
53 5 15 13 16

Dihedrals

1 6 24 27 30 31
2 7 24 27 30 31
3 8 24 27 30 31
4 12 23 24 27 30
5 13 23 24 27 30
6 14 23 24 27 30
7 1 20 23 24 27
8 2 20 23 24 27
9 3 20 23 24 27
10 4 16 17 20 23
11 5 16 17 20 23
12 1 17 20 23 24
13 2 17 20 23 24
14 3 17 20 23 24
15 6 6 1 4 5
16 7 6 1 4 5
17 8 6 1 4 5
18 12 4 1 6 9
19 13 4 1 6 9
20 14 4 1 6 9
21 1 6 9 10 13
22 2 6 9 10 13
23 3 6 9 10 13
24 1 13 16 17 20
25 2 13 16 17 20
26 3 13 16 17 20
27 1 1 6 9 10
28 2 1 6 9 10
29 3 1 6 9 10
30 4 9 10 13 16
31 5 9 10 13 16
32 1 10 13 16 17
33 2 10 13 16 17
34 3 10 13 16 17
