LAMMPS data file via write_data, version 29 Sep 2021, timestep = 10120

31 atoms
7 atom types
30 bonds
6 bond types
53 angles
9 angle types
34 dihedrals
14 dihedral types

-4.091524981248367 2.7718610353898137 xlo xhi
2.507469719388854 13.516181362916313 ylo yhi
10.76685164870602 17.71738076067851 zlo zhi

Masses

1 15.9994
2 1.008
3 12.011
4 15.9994
5 1.008
6 15.9994
7 1.008

Pair Coeffs # lj/cut

1 0 0
2 0 0
3 0 0
4 0 0
5 0.05 1.6036
6 0 0
7 0.05 1.6036

Bond Coeffs # harmonic

1 0 0.9572
2 222.35 1.53
3 308.79 1.1111
4 359.76 1.1415
5 427.715 1.142
6 544.635 0.96

Angle Coeffs # charmm

1 0 104.52 0 0
2 50 109 0 0
3 26.5 110.1 22.53 2.179
4 45 111.5 0 0
5 13.0258 109.4 0 0
6 35.5 109 5.4 1.802
7 55 108.89 0 0
8 75.7 110.1 0 0
9 95 109.7 0 0

Dihedral Coeffs # charmm

1 0.57 1 0 0
2 0.29 2 0 0
3 0.43 3 0 0
4 0.59 1 180 0
5 1.16 2 0 0
6 0.12 1 0 0
7 0.42 2 0 0
8 0.29 3 0 0
9 2.87 1 180 0
10 0.03 2 0 0
11 0.23 3 0 0
12 1.36 1 180 0
13 0.16 2 0 0
14 1.01 3 0 0

Atoms # full

26 1 5 0 -0.3743239118335613 4.816702031874424 12.08474400288533 0 0 0
25 1 5 0 0.48710404517501543 5.745610430468781 10.76985164870602 0 0 0
28 1 5 0 2.0609565097574407 3.7619644352642556 12.753718517557811 0 0 0
29 1 5 0 2.7688610353898135 4.62373188796746 11.316713987413118 0 0 0
31 1 7 0 2.70721026174144 2.5104697193888543 11.165880278024058 0 0 0
27 1 3 0 1.8608201724927782 4.047698669417991 11.675208426669576 0 0 0
24 1 3 0 0.5728974259343079 5.387333072307802 11.845556623360903 0 0 0
30 1 6 0 1.8728727757534955 2.977810868839958 11.040329302450637 0 0 0
21 1 5 0 -1.4695364791491745 6.596390766070905 12.732814301902348 0 0 0
22 1 5 0 -0.481892290347486 8.090821351212195 13.019065743884463 0 0 0
20 1 3 0 -0.49382414395940477 6.961485766910959 13.189228777404198 0 0 0
23 1 4 0 0.4882493129369868 6.557006291436404 12.466177105412743 0 0 0
5 1 7 0 -2.8510480437177925 13.513181362916313 13.22192247161486 0 0 0
3 1 5 0 -2.400431450703779 11.485456412670548 13.576875919372638 0 0 0
4 1 6 0 -2.690475392261878 13.26285751013759 14.138856740203565 0 0 0
18 1 5 0 -1.631087462829078 6.169006867639044 15.02539833423063 0 0 0
11 1 5 0 -3.2394956909533774 8.875520452065047 17.71438076067851 0 0 0
12 1 5 0 -1.7069030256811077 9.81397541786048 17.402172174043898 0 0 0
14 1 5 0 -2.6123131393780605 7.116603844284871 16.012315018605413 0 0 0
15 1 5 0 -1.4494020702263206 7.297027208291702 17.414465702306938 0 0 0
13 1 3 0 -1.7913000480922598 7.778582968847731 16.437187483483143 0 0 0
10 1 3 0 -2.5091276480161193 9.189693157957771 16.892222875159018 0 0 0
16 1 4 0 -0.8047637100005166 7.73246175744979 15.729145035924907 0 0 0
9 1 4 0 -3.206249802300977 9.873348184404174 16.131528120976483 0 0 0
19 1 5 0 0.18325573122702837 6.223268983356093 15.249026373856152 0 0 0
17 1 3 0 -0.7131765514871737 6.825034584973144 14.889059272513173 0 0 0
2 1 5 0 -4.088524981248367 12.000675683052798 14.027513654496808 0 0 0
7 1 5 0 -3.5758127929489247 11.656764653130876 16.562888998772284 0 0 0
8 1 5 0 -1.831306073642568 11.233542491265112 16.204217714793153 0 0 0
6 1 3 0 -2.896920956797198 11.093435920567714 15.84656312328083 0 0 0
1 1 3 0 -2.998426150853615 12.088559923649207 14.328924654685705 0 0 0

Velocities

26 -0 -0 -0
25 -0 -0 0
28 0 0 0
29 -0 -0 -0
31 -0 -0 -0
27 -0 0 -0
24 -0 0 0
30 0 -0 0
21 -0 0 0
22 0 0 0
20 0 0 -0
23 0 -0 0
5 -0 0 0
3 0 -0 0
4 0 0 -0
18 -0 0 0
11 -0 0 -0
12 -0 0 -0
14 -0 0 0
15 -0 -0 -0
13 -0 -0 -0
10 -0 -0 0
16 0 0 0
9 -0 0 0
19 -0 -0 -0
17 0 0 -0
2 -0 0 0
7 0 0 0
8 0 -0 -0
6 0 -0 -0
1 -0 -0 -0

Bonds

1 5 27 30
2 4 27 28
3 4 27 29
4 2 24 27
5 4 24 25
6 4 24 26
7 6 30 31
8 4 20 23
9 4 20 21
10 4 20 22
11 4 23 24
12 6 4 5
13 4 13 16
14 4 13 14
15 4 13 15
16 2 10 13
17 4 10 11
18 4 10 12
19 4 16 17
20 4 9 10
21 2 17 20
22 4 17 18
23 4 17 19
24 4 6 9
25 4 6 7
26 4 6 8
27 2 1 6
28 5 1 4
29 4 1 2
30 4 1 3

Angles

1 3 24 27 28
2 3 24 27 29
3 8 24 27 30
4 6 28 27 29
5 7 28 27 30
6 7 29 27 30
7 5 23 24 25
8 5 23 24 26
9 4 23 24 27
10 6 25 24 26
11 3 25 24 27
12 3 26 24 27
13 2 27 30 31
14 3 17 20 21
15 3 17 20 22
16 4 17 20 23
17 6 21 20 22
18 5 21 20 23
19 5 22 20 23
20 9 20 23 24
21 2 1 4 5
22 3 10 13 14
23 3 10 13 15
24 4 10 13 16
25 6 14 13 15
26 5 14 13 16
27 5 15 13 16
28 5 9 10 11
29 5 9 10 12
30 4 9 10 13
31 6 11 10 12
32 3 11 10 13
33 3 12 10 13
34 9 13 16 17
35 9 6 9 10
36 5 16 17 18
37 5 16 17 19
38 4 16 17 20
39 6 18 17 19
40 3 18 17 20
41 3 19 17 20
42 3 1 6 7
43 3 1 6 8
44 4 1 6 9
45 6 7 6 8
46 5 7 6 9
47 5 8 6 9
48 6 2 1 3
49 7 2 1 4
50 3 2 1 6
51 7 3 1 4
52 3 3 1 6
53 8 4 1 6

Dihedrals

1 6 24 27 30 31
2 7 24 27 30 31
3 8 24 27 30 31
4 12 23 24 27 30
5 13 23 24 27 30
6 14 23 24 27 30
7 1 17 20 23 24
8 2 17 20 23 24
9 3 17 20 23 24
10 1 20 23 24 27
11 2 20 23 24 27
12 3 20 23 24 27
13 1 10 13 16 17
14 2 10 13 16 17
15 3 10 13 16 17
16 4 9 10 13 16
17 5 9 10 13 16
18 1 13 16 17 20
19 2 13 16 17 20
20 3 13 16 17 20
21 1 6 9 10 13
22 2 6 9 10 13
23 3 6 9 10 13
24 4 16 17 20 23
25 5 16 17 20 23
26 1 1 6 9 10
27 2 1 6 9 10
28 3 1 6 9 10
29 6 6 1 4 5
30 7 6 1 4 5
31 8 6 1 4 5
32 12 4 1 6 9
33 13 4 1 6 9
34 14 4 1 6 9
