LAMMPS data file via write_data, version 29 Sep 2021, timestep = 10120

31 atoms
7 atom types
30 bonds
6 bond types
53 angles
9 angle types
34 dihedrals
14 dihedral types

-49.037868011785534 -38.57583809386473 xlo xhi
41.795553001508566 47.10737200079744 ylo yhi
-33.03802608532175 -27.430855937791222 zlo zhi

Masses

1 15.9994
2 1.008
3 12.011
4 15.9994
5 1.008
6 15.9994
7 1.008

Pair Coeffs # lj/cut

1 0 0
2 0 0
3 0 0
4 0 0
5 0.05 1.6036
6 0 0
7 0.05 1.6036

Bond Coeffs # harmonic

1 0 0.9572
2 222.35 1.53
3 308.79 1.1111
4 359.76 1.1415
5 427.715 1.142
6 544.635 0.96

Angle Coeffs # charmm

1 0 104.52 0 0
2 50 109 0 0
3 26.5 110.1 22.53 2.179
4 45 111.5 0 0
5 13.0258 109.4 0 0
6 35.5 109 5.4 1.802
7 55 108.89 0 0
8 75.7 110.1 0 0
9 95 109.7 0 0

Dihedral Coeffs # charmm

1 0.57 1 0 0
2 0.29 2 0 0
3 0.43 3 0 0
4 0.59 1 180 0
5 1.16 2 0 0
6 0.12 1 0 0
7 0.42 2 0 0
8 0.29 3 0 0
9 2.87 1 180 0
10 0.03 2 0 0
11 0.23 3 0 0
12 1.36 1 180 0
13 0.16 2 0 0
14 1.01 3 0 0

Atoms # full

27 1 3 0 -47.22525780840819 45.47760605961214 -31.91834972411083 0 0 0
30 1 6 0 -48.23793271362478 44.81963957619646 -31.648823980837335 0 0 0
28 1 5 0 -47.27284113240862 45.66889960096776 -33.035026085321746 0 0 0
29 1 5 0 -47.36727635587688 46.480387700299566 -31.40840062778208 0 0 0
31 1 7 0 -49.034868011785534 45.28500680121582 -31.928432044361564 0 0 0
4 1 6 0 -43.3084177239423 42.190976708879546 -28.636846682940387 0 0 0
1 1 3 0 -42.26310504233815 42.774120683070464 -29.015033251696398 0 0 0
20 1 3 0 -43.166542227855686 45.377284782720665 -31.630850473907362 0 0 0
23 1 4 0 -44.32845840487839 45.78332484193636 -31.90140307824667 0 0 0
24 1 3 0 -45.43547600431627 45.12349821532542 -31.638207362099163 0 0 0
5 1 7 0 -43.77911614667767 41.798553001508566 -29.382144187454017 0 0 0
2 1 5 0 -42.60615628254281 43.5326195957851 -29.78356208593319 0 0 0
19 1 5 0 -42.16456546889146 47.10437200079744 -32.67863156001609 0 0 0
21 1 5 0 -43.06033899640782 45.316483213037195 -30.497741752774573 0 0 0
22 1 5 0 -43.04490628931707 44.31924318621745 -32.036311434818714 0 0 0
26 1 5 0 -45.293130578980495 44.1266720913932 -32.1598130181151 0 0 0
25 1 5 0 -45.38838296703778 44.938845996167494 -30.520409165288214 0 0 0
6 1 3 0 -40.89512710985154 43.72717060849241 -28.11003057305131 0 0 0
9 1 4 0 -39.759917370499146 44.35446355768421 -28.369666317686324 0 0 0
16 1 4 0 -40.96763177720773 46.55648237270455 -31.320372213040393 0 0 0
10 1 3 0 -39.7098174183493 45.41670994811579 -29.07288998880835 0 0 0
13 1 3 0 -40.22979975326151 45.709538132830545 -30.749012799944897 0 0 0
17 1 3 0 -41.805965447261734 46.17013350116495 -32.12929236736864 0 0 0
3 1 5 0 -41.66912953501287 41.988883084765234 -29.575561781738546 0 0 0
7 1 5 0 -41.46079952338866 44.43725914532212 -27.433855937791222 0 0 0
8 1 5 0 -40.46429422512623 42.919921632436086 -27.434913515740813 0 0 0
11 1 5 0 -40.0986078347438 46.28907994792566 -28.459027250277416 0 0 0
12 1 5 0 -38.57883809386473 45.56972675460758 -29.116555929641738 0 0 0
14 1 5 0 -40.57187742472961 44.69862007137235 -31.130360086931972 0 0 0
15 1 5 0 -39.25036187520826 45.95259418390826 -31.276012044545013 0 0 0
18 1 5 0 -41.300208285124775 45.51587809876743 -32.91239605894399 0 0 0

Velocities

27 -0 -0 -0
30 -0 0 0
28 -0 -0 -0
29 0 0 -0
31 0 0 -0
4 -0 0 -0
1 0 -0 -0
20 -0 0 0
23 -0 -0 -0
24 0 0 -0
5 -0 0 0
2 0 -0 -0
19 -0 -0 -0
21 -0 0 0
22 -0 0 0
26 0 0 -0
25 -0 0 -0
6 -0 -0 -0
9 -0 0 0
16 -0 0 0
10 0 0 0
13 -0 0 0
17 0 -0 -0
3 0 -0 0
7 0 -0 0
8 0 -0 -0
11 0 0 0
12 0 -0 -0
14 -0 0 -0
15 -0 0 -0
18 -0 -0 0

Bonds

1 5 27 30
2 4 27 28
3 4 27 29
4 6 30 31
5 6 4 5
6 2 1 6
7 5 1 4
8 4 1 2
9 4 1 3
10 4 20 23
11 4 20 21
12 4 20 22
13 4 23 24
14 2 24 27
15 4 24 25
16 4 24 26
17 4 6 9
18 4 6 7
19 4 6 8
20 4 9 10
21 4 16 17
22 2 10 13
23 4 10 11
24 4 10 12
25 4 13 16
26 4 13 14
27 4 13 15
28 2 17 20
29 4 17 18
30 4 17 19

Angles

1 3 24 27 28
2 3 24 27 29
3 8 24 27 30
4 6 28 27 29
5 7 28 27 30
6 7 29 27 30
7 2 27 30 31
8 2 1 4 5
9 6 2 1 3
10 7 2 1 4
11 3 2 1 6
12 7 3 1 4
13 3 3 1 6
14 8 4 1 6
15 3 17 20 21
16 3 17 20 22
17 4 17 20 23
18 6 21 20 22
19 5 21 20 23
20 5 22 20 23
21 9 20 23 24
22 5 23 24 25
23 5 23 24 26
24 4 23 24 27
25 6 25 24 26
26 3 25 24 27
27 3 26 24 27
28 3 1 6 7
29 3 1 6 8
30 4 1 6 9
31 6 7 6 8
32 5 7 6 9
33 5 8 6 9
34 9 6 9 10
35 9 13 16 17
36 5 9 10 11
37 5 9 10 12
38 4 9 10 13
39 6 11 10 12
40 3 11 10 13
41 3 12 10 13
42 3 10 13 14
43 3 10 13 15
44 4 10 13 16
45 6 14 13 15
46 5 14 13 16
47 5 15 13 16
48 5 16 17 18
49 5 16 17 19
50 4 16 17 20
51 6 18 17 19
52 3 18 17 20
53 3 19 17 20

Dihedrals

1 6 24 27 30 31
2 7 24 27 30 31
3 8 24 27 30 31
4 6 6 1 4 5
5 7 6 1 4 5
6 8 6 1 4 5
7 12 4 1 6 9
8 13 4 1 6 9
9 14 4 1 6 9
10 1 17 20 23 24
11 2 17 20 23 24
12 3 17 20 23 24
13 1 20 23 24 27
14 2 20 23 24 27
15 3 20 23 24 27
16 12 23 24 27 30
17 13 23 24 27 30
18 14 23 24 27 30
19 1 1 6 9 10
20 2 1 6 9 10
21 3 1 6 9 10
22 1 6 9 10 13
23 2 6 9 10 13
24 3 6 9 10 13
25 1 13 16 17 20
26 2 13 16 17 20
27 3 13 16 17 20
28 4 9 10 13 16
29 5 9 10 13 16
30 1 10 13 16 17
31 2 10 13 16 17
32 3 10 13 16 17
33 4 16 17 20 23
34 5 16 17 20 23
