LAMMPS data file via write_data, version 29 Sep 2021, timestep = 10120

31 atoms
7 atom types
30 bonds
6 bond types
53 angles
9 angle types
34 dihedrals
14 dihedral types

7.527295710576538 15.296244864385457 xlo xhi
71.24857648965144 77.27967009664532 ylo yhi
-7.832307981399649 -1.9650542998260507 zlo zhi

Masses

1 15.9994
2 1.008
3 12.011
4 15.9994
5 1.008
6 15.9994
7 1.008

Pair Coeffs # lj/cut

1 0 0
2 0 0
3 0 0
4 0 0
5 0.05 1.6036
6 0 0
7 0.05 1.6036

Bond Coeffs # harmonic

1 0 0.9572
2 222.35 1.53
3 308.79 1.1111
4 359.76 1.1415
5 427.715 1.142
6 544.635 0.96

Angle Coeffs # charmm

1 0 104.52 0 0
2 50 109 0 0
3 26.5 110.1 22.53 2.179
4 45 111.5 0 0
5 13.0258 109.4 0 0
6 35.5 109 5.4 1.802
7 55 108.89 0 0
8 75.7 110.1 0 0
9 95 109.7 0 0

Dihedral Coeffs # charmm

1 0.57 1 0 0
2 0.29 2 0 0
3 0.43 3 0 0
4 0.59 1 180 0
5 1.16 2 0 0
6 0.12 1 0 0
7 0.42 2 0 0
8 0.29 3 0 0
9 2.87 1 180 0
10 0.03 2 0 0
11 0.23 3 0 0
12 1.36 1 180 0
13 0.16 2 0 0
14 1.01 3 0 0

Atoms # full

11 1 5 0 11.282411850986685 73.2195960511178 -6.597293524743205 0 0 0
14 1 5 0 11.386810703691001 75.74453268326549 -5.248065455884034 0 0 0
18 1 5 0 8.254242031975005 75.57480754221808 -6.738506514454862 0 0 0
19 1 5 0 9.070793566648891 74.92824927293957 -5.2514475600636334 0 0 0
21 1 5 0 9.474807977761559 72.82188101892112 -7.504313368533777 0 0 0
22 1 5 0 7.776245987085098 73.42267981868036 -7.643929032000945 0 0 0
26 1 5 0 9.258293226867124 71.25157648965144 -5.068858113857137 0 0 0
25 1 5 0 7.530295710576538 71.56190437963411 -4.616747048313436 0 0 0
28 1 5 0 8.143121063692044 73.90920058191766 -3.5276664356553895 0 0 0
29 1 5 0 9.87019694600456 73.75832326569899 -4.069408289413127 0 0 0
31 1 7 0 9.59086175402624 73.80607041073705 -1.9680542998260506 0 0 0
13 1 3 0 11.232900515158663 75.53433228634377 -6.354164507341377 0 0 0
17 1 3 0 9.131187198272524 74.94279673909269 -6.382689787529 0 0 0
20 1 3 0 8.612895612411156 73.23584894124266 -6.894564039775922 0 0 0
24 1 3 0 8.467655341921168 72.06200718039146 -5.019394109456306 0 0 0
16 1 4 0 10.052125766706988 75.809508313265 -6.6307576203784 0 0 0
23 1 4 0 8.116664757065049 72.2380233010769 -6.259752953989584 0 0 0
27 1 3 0 9.01281444383552 73.18612626844457 -3.5985370594178416 0 0 0
30 1 6 0 9.366718247347027 72.98023990035921 -2.4139153899903083 0 0 0
5 1 7 0 15.086694518265427 77.27667009664532 -3.966709463102322 0 0 0
2 1 5 0 13.517910031458939 76.58910352907714 -5.214340848758379 0 0 0
3 1 5 0 13.899206440771128 75.5352058930848 -3.7801418096005404 0 0 0
7 1 5 0 14.50346339913029 74.62305858835647 -6.8375927469158695 0 0 0
8 1 5 0 14.73251541759904 73.59912139580821 -5.350993514908624 0 0 0
12 1 5 0 12.3102261550355 74.06484910462625 -7.829307981399649 0 0 0
15 1 5 0 11.811641824487072 76.34849840840947 -6.904342948524854 0 0 0
6 1 3 0 14.041570591907751 74.36027021740433 -5.836986333148938 0 0 0
10 1 3 0 12.062837217354957 74.04151656646096 -6.719827944961582 0 0 0
4 1 6 0 15.293244864385457 76.54707746359314 -4.562502365702561 0 0 0
1 1 3 0 14.283833287345725 75.8662087587778 -4.794146944526772 0 0 0
9 1 4 0 13.060994188132636 73.57542859307537 -6.134104640831961 0 0 0

Velocities

11 0 -0 0
14 0 -0 0
18 0 -0 -0
19 -0 0 0
21 -0 -0 -0
22 0 -0 -0
26 0 0 0
25 0 -0 -0
28 0 0 0
29 0 -0 -0
31 -0 -0 0
13 -0 0 -0
17 0 -0 0
20 0 -0 -0
24 -0 0 0
16 0 -0 -0
23 0 -0 -0
27 -0 0 0
30 0 0 -0
5 -0 0 -0
2 -0 -0 0
3 0 0 0
7 0 -0 -0
8 -0 -0 -0
12 -0 -0 -0
15 0 -0 -0
6 -0 0 -0
10 0 0 0
4 -0 0 -0
1 0 -0 0
9 0 -0 -0

Bonds

1 4 13 16
2 4 13 14
3 4 13 15
4 2 17 20
5 4 17 18
6 4 17 19
7 4 20 23
8 4 20 21
9 4 20 22
10 2 24 27
11 4 24 25
12 4 24 26
13 4 16 17
14 4 23 24
15 5 27 30
16 4 27 28
17 4 27 29
18 6 30 31
19 4 6 9
20 4 6 7
21 4 6 8
22 2 10 13
23 4 10 11
24 4 10 12
25 6 4 5
26 2 1 6
27 5 1 4
28 4 1 2
29 4 1 3
30 4 9 10

Angles

1 3 10 13 14
2 3 10 13 15
3 4 10 13 16
4 6 14 13 15
5 5 14 13 16
6 5 15 13 16
7 5 16 17 18
8 5 16 17 19
9 4 16 17 20
10 6 18 17 19
11 3 18 17 20
12 3 19 17 20
13 3 17 20 21
14 3 17 20 22
15 4 17 20 23
16 6 21 20 22
17 5 21 20 23
18 5 22 20 23
19 5 23 24 25
20 5 23 24 26
21 4 23 24 27
22 6 25 24 26
23 3 25 24 27
24 3 26 24 27
25 9 13 16 17
26 9 20 23 24
27 3 24 27 28
28 3 24 27 29
29 8 24 27 30
30 6 28 27 29
31 7 28 27 30
32 7 29 27 30
33 2 27 30 31
34 3 1 6 7
35 3 1 6 8
36 4 1 6 9
37 6 7 6 8
38 5 7 6 9
39 5 8 6 9
40 5 9 10 11
41 5 9 10 12
42 4 9 10 13
43 6 11 10 12
44 3 11 10 13
45 3 12 10 13
46 2 1 4 5
47 6 2 1 3
48 7 2 1 4
49 3 2 1 6
50 7 3 1 4
51 3 3 1 6
52 8 4 1 6
53 9 6 9 10

Dihedrals

1 1 10 13 16 17
2 2 10 13 16 17
3 3 10 13 16 17
4 4 16 17 20 23
5 5 16 17 20 23
6 1 17 20 23 24
7 2 17 20 23 24
8 3 17 20 23 24
9 12 23 24 27 30
10 13 23 24 27 30
11 14 23 24 27 30
12 1 13 16 17 20
13 2 13 16 17 20
14 3 13 16 17 20
15 1 20 23 24 27
16 2 20 23 24 27
17 3 20 23 24 27
18 6 24 27 30 31
19 7 24 27 30 31
20 8 24 27 30 31
21 1 1 6 9 10
22 2 1 6 9 10
23 3 1 6 9 10
24 4 9 10 13 16
25 5 9 10 13 16
26 6 6 1 4 5
27 7 6 1 4 5
28 8 6 1 4 5
29 12 4 1 6 9
30 13 4 1 6 9
31 14 4 1 6 9
32 1 6 9 10 13
33 2 6 9 10 13
34 3 6 9 10 13
