LAMMPS data file via write_data, version 29 Sep 2021, timestep = 10120

31 atoms
7 atom types
30 bonds
6 bond types
53 angles
9 angle types
34 dihedrals
14 dihedral types

17.092107855037735 29.62399356837756 xlo xhi
-32.13394818018055 -28.474024351301747 ylo yhi
28.51072087985885 33.296797745781994 zlo zhi

Masses

1 15.9994
2 1.008
3 12.011
4 15.9994
5 1.008
6 15.9994
7 1.008

Pair Coeffs # lj/cut

1 0 0
2 0 0
3 0 0
4 0 0
5 0.05 1.6036
6 0 0
7 0.05 1.6036

Bond Coeffs # harmonic

1 0 0.9572
2 222.35 1.53
3 308.79 1.1111
4 359.76 1.1415
5 427.715 1.142
6 544.635 0.96

Angle Coeffs # charmm

1 0 104.52 0 0
2 50 109 0 0
3 26.5 110.1 22.53 2.179
4 45 111.5 0 0
5 13.0258 109.4 0 0
6 35.5 109 5.4 1.802
7 55 108.89 0 0
8 75.7 110.1 0 0
9 95 109.7 0 0

Dihedral Coeffs # charmm

1 0.57 1 0 0
2 0.29 2 0 0
3 0.43 3 0 0
4 0.59 1 180 0
5 1.16 2 0 0
6 0.12 1 0 0
7 0.42 2 0 0
8 0.29 3 0 0
9 2.87 1 180 0
10 0.03 2 0 0
11 0.23 3 0 0
12 1.36 1 180 0
13 0.16 2 0 0
14 1.01 3 0 0

Atoms # full

26 1 5 0 18.59811431283766 -30.822015288466677 28.51372087985885 0 0 0
25 1 5 0 19.682982944668325 -29.406015379635964 28.835847642822024 0 0 0
28 1 5 0 17.939297977653034 -31.04381502785209 31.02828546124812 0 0 0
29 1 5 0 19.130587361080696 -29.75494697759756 31.510232170027606 0 0 0
31 1 7 0 17.095107855037735 -29.265836802134523 31.80667937546338 0 0 0
24 1 3 0 19.369856208929203 -30.415454909463037 29.245618469580688 0 0 0
23 1 4 0 20.35298341267971 -31.2323335668725 28.981507042261452 0 0 0
27 1 3 0 18.351056233593848 -30.029097082388763 30.73373132872231 0 0 0
30 1 6 0 17.419615693688545 -29.23086462792469 30.89930530906702 0 0 0
12 1 5 0 23.833789747746113 -28.477024351301747 31.275276733923185 0 0 0
11 1 5 0 24.531998330035844 -29.83969418606313 30.304737750919145 0 0 0
14 1 5 0 24.59242523777744 -30.931690349062105 33.00850565130643 0 0 0
15 1 5 0 23.150239005066567 -29.832178267802778 33.113186795295505 0 0 0
18 1 5 0 21.397475057417182 -32.13094818018055 31.743788253192257 0 0 0
19 1 5 0 21.523514629147463 -30.314739911110788 31.80670058786602 0 0 0
21 1 5 0 22.048062481551828 -30.296373701661338 29.161195436244366 0 0 0
22 1 5 0 21.995427955755577 -32.10490116500265 29.15566819895259 0 0 0
10 1 3 0 24.54388328479459 -29.370546217042325 31.340654948179157 0 0 0
13 1 3 0 23.76290434198857 -30.45632369551393 32.38510517566354 0 0 0
17 1 3 0 21.98782516524297 -31.241937985398728 31.34943895965979 0 0 0
20 1 3 0 21.491149113918244 -31.18372896492908 29.597600287956645 0 0 0
16 1 4 0 23.071777774476292 -31.422355638903564 32.01599811062112 0 0 0
5 1 7 0 29.62099356837756 -30.96022238580339 33.243840226982826 0 0 0
2 1 5 0 27.497083011881408 -30.888473860600254 33.26379937841152 0 0 0
3 1 5 0 28.335464865085406 -29.273728122413086 33.293797745781994 0 0 0
7 1 5 0 27.38696753886121 -28.65247517386522 30.94830193617927 0 0 0
8 1 5 0 26.62745886861765 -30.296332215722355 30.73044451285386 0 0 0
6 1 3 0 26.800146788515598 -29.467679690711147 31.48112757435961 0 0 0
1 1 3 0 28.094322185600234 -30.16157707500975 32.631604135930964 0 0 0
9 1 4 0 25.65804687137209 -28.826594048667282 31.561832497513894 0 0 0
4 1 6 0 29.184637912316724 -30.723293534049393 32.41694352363865 0 0 0

Velocities

26 -0 -0 0
25 -0 0 -0
28 0 0 0
29 -0 0 0
31 -0 0 -0
24 -0 -0 -0
23 0 0 0
27 0 0 0
30 -0 -0 -0
12 0 0 0
11 0 0 -0
14 -0 0 -0
15 0 -0 0
18 0 -0 -0
19 -0 -0 -0
21 -0 -0 -0
22 -0 -0 -0
10 -0 0 -0
13 0 -0 0
17 -0 0 -0
20 0 -0 0
16 0 0 0
5 -0 -0 0
2 0 0 0
3 0 -0 -0
7 -0 0 -0
8 0 -0 0
6 0 -0 0
1 0 -0 -0
9 -0 -0 -0
4 -0 0 0

Bonds

1 2 24 27
2 4 24 25
3 4 24 26
4 4 23 24
5 5 27 30
6 4 27 28
7 4 27 29
8 6 30 31
9 2 10 13
10 4 10 11
11 4 10 12
12 4 13 16
13 4 13 14
14 4 13 15
15 2 17 20
16 4 17 18
17 4 17 19
18 4 20 23
19 4 20 21
20 4 20 22
21 4 16 17
22 4 6 9
23 4 6 7
24 4 6 8
25 2 1 6
26 5 1 4
27 4 1 2
28 4 1 3
29 4 9 10
30 6 4 5

Angles

1 5 23 24 25
2 5 23 24 26
3 4 23 24 27
4 6 25 24 26
5 3 25 24 27
6 3 26 24 27
7 9 20 23 24
8 3 24 27 28
9 3 24 27 29
10 8 24 27 30
11 6 28 27 29
12 7 28 27 30
13 7 29 27 30
14 2 27 30 31
15 5 9 10 11
16 5 9 10 12
17 4 9 10 13
18 6 11 10 12
19 3 11 10 13
20 3 12 10 13
21 3 10 13 14
22 3 10 13 15
23 4 10 13 16
24 6 14 13 15
25 5 14 13 16
26 5 15 13 16
27 5 16 17 18
28 5 16 17 19
29 4 16 17 20
30 6 18 17 19
31 3 18 17 20
32 3 19 17 20
33 3 17 20 21
34 3 17 20 22
35 4 17 20 23
36 6 21 20 22
37 5 21 20 23
38 5 22 20 23
39 9 13 16 17
40 3 1 6 7
41 3 1 6 8
42 4 1 6 9
43 6 7 6 8
44 5 7 6 9
45 5 8 6 9
46 6 2 1 3
47 7 2 1 4
48 3 2 1 6
49 7 3 1 4
50 3 3 1 6
51 8 4 1 6
52 9 6 9 10
53 2 1 4 5

Dihedrals

1 12 23 24 27 30
2 13 23 24 27 30
3 14 23 24 27 30
4 1 20 23 24 27
5 2 20 23 24 27
6 3 20 23 24 27
7 6 24 27 30 31
8 7 24 27 30 31
9 8 24 27 30 31
10 4 9 10 13 16
11 5 9 10 13 16
12 1 10 13 16 17
13 2 10 13 16 17
14 3 10 13 16 17
15 4 16 17 20 23
16 5 16 17 20 23
17 1 17 20 23 24
18 2 17 20 23 24
19 3 17 20 23 24
20 1 13 16 17 20
21 2 13 16 17 20
22 3 13 16 17 20
23 1 1 6 9 10
24 2 1 6 9 10
25 3 1 6 9 10
26 6 6 1 4 5
27 7 6 1 4 5
28 8 6 1 4 5
29 12 4 1 6 9
30 13 4 1 6 9
31 14 4 1 6 9
32 1 6 9 10 13
33 2 6 9 10 13
34 3 6 9 10 13
