LAMMPS data file via write_data, version 29 Sep 2021, timestep = 10120

31 atoms
7 atom types
30 bonds
6 bond types
53 angles
9 angle types
34 dihedrals
14 dihedral types

-10.736968993352024 -3.1218013456265887 xlo xhi
-16.803787722490988 -10.541624404491124 ylo yhi
31.062673126623164 41.055602119310954 zlo zhi

Masses

1 15.9994
2 1.008
3 12.011
4 15.9994
5 1.008
6 15.9994
7 1.008

Pair Coeffs # lj/cut

1 0 0
2 0 0
3 0 0
4 0 0
5 0.05 1.6036
6 0 0
7 0.05 1.6036

Bond Coeffs # harmonic

1 0 0.9572
2 222.35 1.53
3 308.79 1.1111
4 359.76 1.1415
5 427.715 1.142
6 544.635 0.96

Angle Coeffs # charmm

1 0 104.52 0 0
2 50 109 0 0
3 26.5 110.1 22.53 2.179
4 45 111.5 0 0
5 13.0258 109.4 0 0
6 35.5 109 5.4 1.802
7 55 108.89 0 0
8 75.7 110.1 0 0
9 95 109.7 0 0

Dihedral Coeffs # charmm

1 0.57 1 0 0
2 0.29 2 0 0
3 0.43 3 0 0
4 0.59 1 180 0
5 1.16 2 0 0
6 0.12 1 0 0
7 0.42 2 0 0
8 0.29 3 0 0
9 2.87 1 180 0
10 0.03 2 0 0
11 0.23 3 0 0
12 1.36 1 180 0
13 0.16 2 0 0
14 1.01 3 0 0

Atoms # full

5 1 7 0 -8.247182024885085 -12.792642922255762 31.065673126623164 0 0 0
2 1 5 0 -8.706634593172616 -13.74787396250751 32.90984804934188 0 0 0
3 1 5 0 -7.749629294025711 -12.208463864330469 33.04688009805419 0 0 0
7 1 5 0 -9.97901871292216 -11.055626997264556 34.231642337511445 0 0 0
8 1 5 0 -10.733968993352024 -12.703540326583452 34.199888627953534 0 0 0
1 1 3 0 -8.779067320952867 -12.621009840325211 32.813965351832024 0 0 0
6 1 3 0 -9.749732600888464 -12.157035190542317 34.362564543956815 0 0 0
9 1 4 0 -9.654949973747073 -12.33404193278444 35.66216480092915 0 0 0
4 1 6 0 -8.954552916932142 -12.403545692423615 31.593915863513693 0 0 0
14 1 5 0 -6.819446268816978 -12.423495607680598 34.88423697601495 0 0 0
15 1 5 0 -6.576464738850542 -10.887150440125023 35.82881187461509 0 0 0
13 1 3 0 -6.838192850676746 -11.985786675127825 35.93465043299302 0 0 0
11 1 5 0 -8.693848660663901 -12.613039060966333 37.26477944326416 0 0 0
12 1 5 0 -8.834379171348584 -10.918047779233477 36.65829018849717 0 0 0
10 1 3 0 -8.611597898245803 -11.980982493775915 36.32125212770006 0 0 0
19 1 5 0 -3.9285611986756095 -12.527538203344827 36.490277107793304 0 0 0
18 1 5 0 -4.750271230257675 -10.913796704763975 36.42180475058821 0 0 0
21 1 5 0 -4.575934349211467 -10.544624404491124 38.739319500826376 0 0 0
22 1 5 0 -3.124801345626589 -11.583850372022324 38.486438097027005 0 0 0
26 1 5 0 -4.0055290444804355 -13.27000016039565 41.052602119310954 0 0 0
25 1 5 0 -3.327689875938911 -13.68130945677776 39.413400520902144 0 0 0
28 1 5 0 -5.610054025696393 -15.140631768957139 38.96999149441744 0 0 0
29 1 5 0 -6.121501567448041 -14.765593773462484 40.67441526051571 0 0 0
31 1 7 0 -5.641027297266599 -16.800787722490988 40.29016003061609 0 0 0
17 1 3 0 -4.796750346456002 -11.93036631167851 36.92962559444231 0 0 0
16 1 4 0 -5.794526703859237 -12.55018549435733 36.450465883285815 0 0 0
20 1 3 0 -4.260709219022852 -11.627218801044071 38.55619877059879 0 0 0
23 1 4 0 -4.531648297627262 -12.163716046504506 39.66849560201202 0 0 0
24 1 3 0 -4.283234589321272 -13.419958613823642 39.959999154886475 0 0 0
27 1 3 0 -5.227806911198552 -15.035793320659232 40.03180749083805 0 0 0
30 1 6 0 -4.902164837642443 -16.187567434534483 40.382587779922076 0 0 0

Velocities

5 -0 0 -0
2 0 -0 -0
3 -0 -0 -0
7 0 0 -0
8 -0 0 -0
1 -0 -0 -0
6 0 -0 0
9 -0 0 -0
4 0 0 0
14 -0 0 0
15 -0 0 -0
13 0 -0 0
11 0 -0 0
12 0 -0 0
10 -0 -0 0
19 0 -0 0
18 -0 -0 -0
21 0 0 0
22 -0 -0 0
26 0 0 -0
25 -0 -0 -0
28 0 -0 0
29 0 0 0
31 -0 0 0
17 -0 -0 0
16 -0 0 -0
20 -0 0 0
23 0 0 -0
24 0 -0 -0
27 0 -0 0
30 -0 0 -0

Bonds

1 2 1 6
2 5 1 4
3 4 1 2
4 4 1 3
5 4 6 9
6 4 6 7
7 4 6 8
8 4 9 10
9 6 4 5
10 4 13 16
11 4 13 14
12 4 13 15
13 2 10 13
14 4 10 11
15 4 10 12
16 2 17 20
17 4 17 18
18 4 17 19
19 4 16 17
20 4 20 23
21 4 20 21
22 4 20 22
23 4 23 24
24 2 24 27
25 4 24 25
26 4 24 26
27 5 27 30
28 4 27 28
29 4 27 29
30 6 30 31

Angles

1 6 2 1 3
2 7 2 1 4
3 3 2 1 6
4 7 3 1 4
5 3 3 1 6
6 8 4 1 6
7 3 1 6 7
8 3 1 6 8
9 4 1 6 9
10 6 7 6 8
11 5 7 6 9
12 5 8 6 9
13 9 6 9 10
14 2 1 4 5
15 3 10 13 14
16 3 10 13 15
17 4 10 13 16
18 6 14 13 15
19 5 14 13 16
20 5 15 13 16
21 5 9 10 11
22 5 9 10 12
23 4 9 10 13
24 6 11 10 12
25 3 11 10 13
26 3 12 10 13
27 5 16 17 18
28 5 16 17 19
29 4 16 17 20
30 6 18 17 19
31 3 18 17 20
32 3 19 17 20
33 9 13 16 17
34 3 17 20 21
35 3 17 20 22
36 4 17 20 23
37 6 21 20 22
38 5 21 20 23
39 5 22 20 23
40 9 20 23 24
41 5 23 24 25
42 5 23 24 26
43 4 23 24 27
44 6 25 24 26
45 3 25 24 27
46 3 26 24 27
47 3 24 27 28
48 3 24 27 29
49 8 24 27 30
50 6 28 27 29
51 7 28 27 30
52 7 29 27 30
53 2 27 30 31

Dihedrals

1 6 6 1 4 5
2 7 6 1 4 5
3 8 6 1 4 5
4 12 4 1 6 9
5 13 4 1 6 9
6 14 4 1 6 9
7 1 1 6 9 10
8 2 1 6 9 10
9 3 1 6 9 10
10 1 6 9 10 13
11 2 6 9 10 13
12 3 6 9 10 13
13 1 10 13 16 17
14 2 10 13 16 17
15 3 10 13 16 17
16 4 9 10 13 16
17 5 9 10 13 16
18 4 16 17 20 23
19 5 16 17 20 23
20 1 13 16 17 20
21 2 13 16 17 20
22 3 13 16 17 20
23 1 17 20 23 24
24 2 17 20 23 24
25 3 17 20 23 24
26 1 20 23 24 27
27 2 20 23 24 27
28 3 20 23 24 27
29 12 23 24 27 30
30 13 23 24 27 30
31 14 23 24 27 30
32 6 24 27 30 31
33 7 24 27 30 31
34 8 24 27 30 31
