LAMMPS data file via write_data, version 29 Sep 2021, timestep = 10120

31 atoms
7 atom types
30 bonds
6 bond types
53 angles
9 angle types
34 dihedrals
14 dihedral types

40.34853581698647 46.60039506392447 xlo xhi
11.050231509421389 16.225374370383708 ylo yhi
24.852035809855995 37.68211566202909 zlo zhi

Masses

1 15.9994
2 1.008
3 12.011
4 15.9994
5 1.008
6 15.9994
7 1.008

Pair Coeffs # lj/cut

1 0 0
2 0 0
3 0 0
4 0 0
5 0.05 1.6036
6 0 0
7 0.05 1.6036

Bond Coeffs # harmonic

1 0 0.9572
2 222.35 1.53
3 308.79 1.1111
4 359.76 1.1415
5 427.715 1.142
6 544.635 0.96

Angle Coeffs # charmm

1 0 104.52 0 0
2 50 109 0 0
3 26.5 110.1 22.53 2.179
4 45 111.5 0 0
5 13.0258 109.4 0 0
6 35.5 109 5.4 1.802
7 55 108.89 0 0
8 75.7 110.1 0 0
9 95 109.7 0 0

Dihedral Coeffs # charmm

1 0.57 1 0 0
2 0.29 2 0 0
3 0.43 3 0 0
4 0.59 1 180 0
5 1.16 2 0 0
6 0.12 1 0 0
7 0.42 2 0 0
8 0.29 3 0 0
9 2.87 1 180 0
10 0.03 2 0 0
11 0.23 3 0 0
12 1.36 1 180 0
13 0.16 2 0 0
14 1.01 3 0 0

Atoms # full

5 1 7 0 46.59739506392447 16.222374370383708 24.855035809855995 0 0 0
2 1 5 0 46.28525739846905 15.087748175052438 26.604305992075805 0 0 0
3 1 5 0 45.91501548224517 14.245724640601276 25.027783832649234 0 0 0
7 1 5 0 43.65202804443579 15.221409648333141 27.09669734640133 0 0 0
8 1 5 0 43.37027297794655 14.295352633647921 25.54175912951153 0 0 0
12 1 5 0 42.82816303925509 12.324288669208686 28.302886764731866 0 0 0
11 1 5 0 42.50067165684526 14.118472901257189 28.237674462373523 0 0 0
14 1 5 0 45.16599704004269 14.18800865931523 29.155597932814416 0 0 0
6 1 3 0 44.06371830991039 14.39642294567711 26.43774696972187 0 0 0
1 1 3 0 45.55450231416993 15.056139394501239 25.736224093880782 0 0 0
9 1 4 0 43.806832916569554 13.315563961409486 27.042343372699776 0 0 0
10 1 3 0 43.33048299296864 13.342537633633446 28.175343979318964 0 0 0
4 1 6 0 45.68482918823589 16.10910476921653 25.142435659882956 0 0 0
15 1 5 0 44.72647987975983 12.512288961128476 29.748034283788545 0 0 0
18 1 5 0 44.267642031526705 12.369924105827529 31.306921284008006 0 0 0
19 1 5 0 44.233099970458426 13.888847320969173 32.32843332803676 0 0 0
21 1 5 0 41.494108287146894 13.58976412390693 31.431143135027973 0 0 0
22 1 5 0 42.02353186979497 11.868655568835733 31.717567127214224 0 0 0
13 1 3 0 44.29533250784046 13.534045500734576 29.494667061298202 0 0 0
16 1 4 0 43.907145189369885 14.06049845963303 30.51242914413174 0 0 0
17 1 3 0 43.70883060920563 13.34607114669822 31.474532013401763 0 0 0
20 1 3 0 42.200126785950424 12.941438000417282 32.05365232444312 0 0 0
23 1 4 0 41.83729466983042 13.117227662899827 33.263661120780284 0 0 0
26 1 5 0 41.995865588583754 11.234429757469876 33.81587649177849 0 0 0
25 1 5 0 40.35153581698647 12.0382119237986 33.80475490381572 0 0 0
28 1 5 0 42.35597720271669 12.214521231392013 36.333949552070024 0 0 0
29 1 5 0 40.66348418496977 12.874883302900034 36.278651383884714 0 0 0
31 1 7 0 40.98216800990137 11.304831583937082 37.67911566202909 0 0 0
24 1 3 0 41.434159174753255 12.169031369685147 34.11803347923428 0 0 0
27 1 3 0 41.29927536593127 11.979572859914976 35.99937018893036 0 0 0
30 1 6 0 40.9125696062382 11.053231509421389 36.75023734589817 0 0 0

Velocities

5 -0 0 0
2 0 0 -0
3 0 0 0
7 -0 0 -0
8 0 -0 -0
12 0 0 0
11 -0 -0 0
14 -0 0 0
6 0 0 -0
1 0 0 0
9 0 -0 0
10 -0 0 0
4 -0 -0 -0
15 -0 -0 0
18 -0 -0 -0
19 0 -0 0
21 0 -0 0
22 0 -0 0
13 -0 0 0
16 -0 0 0
17 0 -0 -0
20 0 -0 -0
23 0 -0 -0
26 -0 -0 0
25 -0 0 0
28 -0 0 -0
29 -0 -0 -0
31 0 0 0
24 -0 0 0
27 -0 0 -0
30 0 -0 0

Bonds

1 4 6 9
2 4 6 7
3 4 6 8
4 2 1 6
5 5 1 4
6 4 1 2
7 4 1 3
8 4 9 10
9 2 10 13
10 4 10 11
11 4 10 12
12 6 4 5
13 4 13 16
14 4 13 14
15 4 13 15
16 4 16 17
17 2 17 20
18 4 17 18
19 4 17 19
20 4 20 23
21 4 20 21
22 4 20 22
23 4 23 24
24 2 24 27
25 4 24 25
26 4 24 26
27 5 27 30
28 4 27 28
29 4 27 29
30 6 30 31

Angles

1 3 1 6 7
2 3 1 6 8
3 4 1 6 9
4 6 7 6 8
5 5 7 6 9
6 5 8 6 9
7 6 2 1 3
8 7 2 1 4
9 3 2 1 6
10 7 3 1 4
11 3 3 1 6
12 8 4 1 6
13 9 6 9 10
14 5 9 10 11
15 5 9 10 12
16 4 9 10 13
17 6 11 10 12
18 3 11 10 13
19 3 12 10 13
20 2 1 4 5
21 3 10 13 14
22 3 10 13 15
23 4 10 13 16
24 6 14 13 15
25 5 14 13 16
26 5 15 13 16
27 9 13 16 17
28 5 16 17 18
29 5 16 17 19
30 4 16 17 20
31 6 18 17 19
32 3 18 17 20
33 3 19 17 20
34 3 17 20 21
35 3 17 20 22
36 4 17 20 23
37 6 21 20 22
38 5 21 20 23
39 5 22 20 23
40 9 20 23 24
41 5 23 24 25
42 5 23 24 26
43 4 23 24 27
44 6 25 24 26
45 3 25 24 27
46 3 26 24 27
47 3 24 27 28
48 3 24 27 29
49 8 24 27 30
50 6 28 27 29
51 7 28 27 30
52 7 29 27 30
53 2 27 30 31

Dihedrals

1 1 1 6 9 10
2 2 1 6 9 10
3 3 1 6 9 10
4 6 6 1 4 5
5 7 6 1 4 5
6 8 6 1 4 5
7 12 4 1 6 9
8 13 4 1 6 9
9 14 4 1 6 9
10 1 6 9 10 13
11 2 6 9 10 13
12 3 6 9 10 13
13 4 9 10 13 16
14 5 9 10 13 16
15 1 10 13 16 17
16 2 10 13 16 17
17 3 10 13 16 17
18 1 13 16 17 20
19 2 13 16 17 20
20 3 13 16 17 20
21 4 16 17 20 23
22 5 16 17 20 23
23 1 17 20 23 24
24 2 17 20 23 24
25 3 17 20 23 24
26 1 20 23 24 27
27 2 20 23 24 27
28 3 20 23 24 27
29 12 23 24 27 30
30 13 23 24 27 30
31 14 23 24 27 30
32 6 24 27 30 31
33 7 24 27 30 31
34 8 24 27 30 31
