LAMMPS data file via write_data, version 29 Sep 2021, timestep = 10120

31 atoms
7 atom types
30 bonds
6 bond types
53 angles
9 angle types
34 dihedrals
14 dihedral types

-21.145453719892135 -16.028755955100703 xlo xhi
-15.902318125442745 -3.922551351186669 ylo yhi
17.873873637029597 23.26025439903858 zlo zhi

Masses

1 15.9994
2 1.008
3 12.011
4 15.9994
5 1.008
6 15.9994
7 1.008

Pair Coeffs # lj/cut

1 0 0
2 0 0
3 0 0
4 0 0
5 0.05 1.6036
6 0 0
7 0.05 1.6036

Bond Coeffs # harmonic

1 0 0.9572
2 222.35 1.53
3 308.79 1.1111
4 359.76 1.1415
5 427.715 1.142
6 544.635 0.96

Angle Coeffs # charmm

1 0 104.52 0 0
2 50 109 0 0
3 26.5 110.1 22.53 2.179
4 45 111.5 0 0
5 13.0258 109.4 0 0
6 35.5 109 5.4 1.802
7 55 108.89 0 0
8 75.7 110.1 0 0
9 95 109.7 0 0

Dihedral Coeffs # charmm

1 0.57 1 0 0
2 0.29 2 0 0
3 0.43 3 0 0
4 0.59 1 180 0
5 1.16 2 0 0
6 0.12 1 0 0
7 0.42 2 0 0
8 0.29 3 0 0
9 2.87 1 180 0
10 0.03 2 0 0
11 0.23 3 0 0
12 1.36 1 180 0
13 0.16 2 0 0
14 1.01 3 0 0

Atoms # full

5 1 7 0 -16.253401720232418 -15.899318125442745 20.288786183833082 0 0 0
2 1 5 0 -16.64592506517315 -13.980722895235209 21.093841408133194 0 0 0
3 1 5 0 -17.995371026253384 -14.710686785227105 20.115435317757875 0 0 0
7 1 5 0 -16.29681895993609 -12.155743724717839 19.087578964834208 0 0 0
8 1 5 0 -17.778493574290064 -12.87674862114244 18.293128819443417 0 0 0
4 1 6 0 -16.210884547358553 -15.155333147027845 19.676762251762852 0 0 0
1 1 3 0 -16.965449818831605 -14.242577690982804 20.037922223949746 0 0 0
6 1 3 0 -17.32128919651522 -12.590229083138958 19.293370855414643 0 0 0
11 1 5 0 -18.80274153108502 -9.84284553826833 19.3895423173072 0 0 0
12 1 5 0 -17.28490052034722 -10.22876044868734 18.471922565509452 0 0 0
14 1 5 0 -16.51997655097905 -8.544597029567608 19.946708415545018 0 0 0
15 1 5 0 -16.031755955100703 -10.042805286451749 20.868612870465185 0 0 0
22 1 5 0 -19.55179463794247 -8.176305784159783 22.933018155740747 0 0 0
9 1 4 0 -18.095035781202427 -11.587356847522285 19.6178417032005 0 0 0
10 1 3 0 -17.793117069625417 -10.369871610103635 19.481391897879863 0 0 0
13 1 3 0 -16.929546402322973 -9.413584095445408 20.5571724718849 0 0 0
16 1 4 0 -17.343971520638945 -8.934621323863528 21.60450085750228 0 0 0
19 1 5 0 -17.80040795212032 -7.394172268176094 20.557237226739463 0 0 0
18 1 5 0 -16.883812486861157 -7.221616780386076 22.133738681381224 0 0 0
21 1 5 0 -18.788790030459765 -6.564822019182885 23.25725439903858 0 0 0
26 1 5 0 -19.092737791634004 -5.105586714911408 21.532322599854528 0 0 0
25 1 5 0 -20.916221353131174 -5.080845161906684 21.613676587060056 0 0 0
28 1 5 0 -21.142453719892135 -5.481561577118956 19.041980763751376 0 0 0
29 1 5 0 -19.342529254633057 -5.672123226543133 18.861535670495062 0 0 0
31 1 7 0 -20.189643281921736 -3.9872565619137896 17.876873637029597 0 0 0
17 1 3 0 -17.73891312955435 -7.778114617210855 21.62421159871084 0 0 0
20 1 3 0 -19.12974758666 -7.25021403347966 22.41379726203479 0 0 0
23 1 4 0 -20.113137185237626 -6.733397801544456 21.833885999862208 0 0 0
27 1 3 0 -20.145259097618467 -5.051503306649329 19.36636187016512 0 0 0
30 1 6 0 -20.08009620830957 -3.925551351186669 18.833261374506993 0 0 0
24 1 3 0 -20.02714552467212 -5.61516039548526 21.149259062830904 0 0 0

Velocities

5 0 0 0
2 0 0 -0
3 0 0 0
7 -0 0 -0
8 -0 -0 -0
4 -0 -0 -0
1 0 0 0
6 0 -0 -0
11 -0 -0 0
12 -0 -0 -0
14 -0 0 0
15 -0 -0 -0
22 0 -0 -0
9 0 0 0
10 0 0 0
13 -0 -0 0
16 0 -0 0
19 0 0 0
18 0 -0 0
21 0 0 -0
26 -0 0 0
25 -0 -0 0
28 -0 0 0
29 0 0 -0
31 -0 0 0
17 0 0 -0
20 0 0 -0
23 -0 -0 -0
27 0 -0 -0
30 -0 0 0
24 -0 0 0

Bonds

1 6 4 5
2 2 1 6
3 5 1 4
4 4 1 2
5 4 1 3
6 4 6 9
7 4 6 7
8 4 6 8
9 4 9 10
10 2 10 13
11 4 10 11
12 4 10 12
13 4 13 16
14 4 13 14
15 4 13 15
16 4 16 17
17 2 17 20
18 4 17 18
19 4 17 19
20 4 20 23
21 4 20 21
22 4 20 22
23 4 23 24
24 5 27 30
25 4 27 28
26 4 27 29
27 6 30 31
28 2 24 27
29 4 24 25
30 4 24 26

Angles

1 2 1 4 5
2 6 2 1 3
3 7 2 1 4
4 3 2 1 6
5 7 3 1 4
6 3 3 1 6
7 8 4 1 6
8 3 1 6 7
9 3 1 6 8
10 4 1 6 9
11 6 7 6 8
12 5 7 6 9
13 5 8 6 9
14 9 6 9 10
15 5 9 10 11
16 5 9 10 12
17 4 9 10 13
18 6 11 10 12
19 3 11 10 13
20 3 12 10 13
21 3 10 13 14
22 3 10 13 15
23 4 10 13 16
24 6 14 13 15
25 5 14 13 16
26 5 15 13 16
27 9 13 16 17
28 5 16 17 18
29 5 16 17 19
30 4 16 17 20
31 6 18 17 19
32 3 18 17 20
33 3 19 17 20
34 3 17 20 21
35 3 17 20 22
36 4 17 20 23
37 6 21 20 22
38 5 21 20 23
39 5 22 20 23
40 9 20 23 24
41 3 24 27 28
42 3 24 27 29
43 8 24 27 30
44 6 28 27 29
45 7 28 27 30
46 7 29 27 30
47 2 27 30 31
48 5 23 24 25
49 5 23 24 26
50 4 23 24 27
51 6 25 24 26
52 3 25 24 27
53 3 26 24 27

Dihedrals

1 6 6 1 4 5
2 7 6 1 4 5
3 8 6 1 4 5
4 12 4 1 6 9
5 13 4 1 6 9
6 14 4 1 6 9
7 1 1 6 9 10
8 2 1 6 9 10
9 3 1 6 9 10
10 1 6 9 10 13
11 2 6 9 10 13
12 3 6 9 10 13
13 4 9 10 13 16
14 5 9 10 13 16
15 1 10 13 16 17
16 2 10 13 16 17
17 3 10 13 16 17
18 1 13 16 17 20
19 2 13 16 17 20
20 3 13 16 17 20
21 4 16 17 20 23
22 5 16 17 20 23
23 1 17 20 23 24
24 2 17 20 23 24
25 3 17 20 23 24
26 1 20 23 24 27
27 2 20 23 24 27
28 3 20 23 24 27
29 6 24 27 30 31
30 7 24 27 30 31
31 8 24 27 30 31
32 12 23 24 27 30
33 13 23 24 27 30
34 14 23 24 27 30
