LAMMPS data file via write_data, version 29 Sep 2021, timestep = 10120

31 atoms
7 atom types
30 bonds
6 bond types
53 angles
9 angle types
34 dihedrals
14 dihedral types

-1.3785193425831808 5.110258285220534 xlo xhi
1.6630107616966148 8.66313952993293 ylo yhi
-32.691046136685046 -25.554546894708512 zlo zhi

Masses

1 15.9994
2 1.008
3 12.011
4 15.9994
5 1.008
6 15.9994
7 1.008

Pair Coeffs # lj/cut

1 0 0
2 0 0
3 0 0
4 0 0
5 0.05 1.6036
6 0 0
7 0.05 1.6036

Bond Coeffs # harmonic

1 0 0.9572
2 222.35 1.53
3 308.79 1.1111
4 359.76 1.1415
5 427.715 1.142
6 544.635 0.96

Angle Coeffs # charmm

1 0 104.52 0 0
2 50 109 0 0
3 26.5 110.1 22.53 2.179
4 45 111.5 0 0
5 13.0258 109.4 0 0
6 35.5 109 5.4 1.802
7 55 108.89 0 0
8 75.7 110.1 0 0
9 95 109.7 0 0

Dihedral Coeffs # charmm

1 0.57 1 0 0
2 0.29 2 0 0
3 0.43 3 0 0
4 0.59 1 180 0
5 1.16 2 0 0
6 0.12 1 0 0
7 0.42 2 0 0
8 0.29 3 0 0
9 2.87 1 180 0
10 0.03 2 0 0
11 0.23 3 0 0
12 1.36 1 180 0
13 0.16 2 0 0
14 1.01 3 0 0

Atoms # full

29 1 5 0 2.230807792051942 3.512701453191449 -29.457305577384354 0 0 0
31 1 7 0 1.2342994043210938 1.6660107616966147 -29.195493253210657 0 0 0
4 1 6 0 4.280417916423435 7.678750393191476 -32.688046136685045 0 0 0
1 1 3 0 3.749460888070858 7.403769051548416 -31.61747411095627 0 0 0
9 1 4 0 1.6329029569335005 6.145283695828964 -30.18116448508768 0 0 0
6 1 3 0 2.205794551820476 6.512653016014871 -31.29590973718349 0 0 0
10 1 3 0 0.42253459425196793 6.407022638777618 -29.822553777660108 0 0 0
5 1 7 0 5.107258285220534 8.153086067250925 -32.54521212057358 0 0 0
2 1 5 0 4.522810259181086 6.820738903128912 -31.026547630033065 0 0 0
3 1 5 0 3.6017915041301025 8.392213493081872 -31.0802904926371 0 0 0
7 1 5 0 2.4110017530379126 5.499055820368675 -31.77241252306756 0 0 0
8 1 5 0 1.4354660897590668 7.030282490132025 -31.945601930075 0 0 0
11 1 5 0 0.11386785027793822 5.418582378446597 -29.3441243094987 0 0 0
12 1 5 0 -0.1944753820313568 6.4928797237424405 -30.77321537922041 0 0 0
27 1 3 0 1.7706276427694057 3.2471243182329586 -28.455840276466148 0 0 0
30 1 6 0 1.7178068127622874 2.005526635783466 -28.4331561773615 0 0 0
24 1 3 0 2.5626425614101644 4.478406368844239 -27.306952092713264 0 0 0
26 1 5 0 3.6598156877037415 4.185266947405482 -27.383548138089342 0 0 0
25 1 5 0 2.218579894904285 4.1562673724190535 -26.277346818256827 0 0 0
28 1 5 0 0.692894529096643 3.596965195719474 -28.488799554196184 0 0 0
16 1 4 0 -0.47048300931639386 7.549166732045702 -27.52093446088125 0 0 0
23 1 4 0 2.711824048060533 5.792836925430331 -27.26756594906486 0 0 0
13 1 3 0 -0.29328885511720204 7.5908020612586755 -28.7355795231735 0 0 0
17 1 3 0 0.5571636674356717 7.623602880249018 -26.846238775305853 0 0 0
20 1 3 0 1.9800374910487633 6.590803538233797 -26.57255084580197 0 0 0
14 1 5 0 0.19184894895900262 8.589364067636337 -28.96960953238424 0 0 0
15 1 5 0 -1.3755193425831809 7.676751375922305 -29.084251660020676 0 0 0
18 1 5 0 0.9695120575480474 8.66013952993293 -27.057642989418515 0 0 0
19 1 5 0 0.075799534550035 7.690108593320209 -25.814944559700372 0 0 0
21 1 5 0 2.7845131299208696 7.3805312565922385 -26.382187867378292 0 0 0
22 1 5 0 1.796065301626389 6.116450282761518 -25.557546894708512 0 0 0

Velocities

29 -0 0 -0
31 -0 0 0
4 -0 0 0
1 0 -0 -0
9 -0 -0 0
6 0 -0 0
10 -0 0 -0
5 -0 0 -0
2 0 -0 -0
3 0 -0 0
7 -0 0 -0
8 0 0 0
11 -0 0 -0
12 0 0 -0
27 -0 0 0
30 0 -0 -0
24 0 0 -0
26 0 -0 0
25 0 0 0
28 -0 -0 -0
16 -0 -0 0
23 -0 -0 -0
13 0 0 0
17 -0 0 -0
20 -0 0 0
14 0 0 0
15 0 0 0
18 0 0 -0
19 0 -0 0
21 -0 0 0
22 -0 -0 -0

Bonds

1 6 4 5
2 2 1 6
3 5 1 4
4 4 1 2
5 4 1 3
6 4 9 10
7 4 6 9
8 4 6 7
9 4 6 8
10 2 10 13
11 4 10 11
12 4 10 12
13 5 27 30
14 4 27 28
15 4 27 29
16 6 30 31
17 2 24 27
18 4 24 25
19 4 24 26
20 4 16 17
21 4 23 24
22 4 13 16
23 4 13 14
24 4 13 15
25 2 17 20
26 4 17 18
27 4 17 19
28 4 20 23
29 4 20 21
30 4 20 22

Angles

1 2 1 4 5
2 6 2 1 3
3 7 2 1 4
4 3 2 1 6
5 7 3 1 4
6 3 3 1 6
7 8 4 1 6
8 9 6 9 10
9 3 1 6 7
10 3 1 6 8
11 4 1 6 9
12 6 7 6 8
13 5 7 6 9
14 5 8 6 9
15 5 9 10 11
16 5 9 10 12
17 4 9 10 13
18 6 11 10 12
19 3 11 10 13
20 3 12 10 13
21 3 24 27 28
22 3 24 27 29
23 8 24 27 30
24 6 28 27 29
25 7 28 27 30
26 7 29 27 30
27 2 27 30 31
28 5 23 24 25
29 5 23 24 26
30 4 23 24 27
31 6 25 24 26
32 3 25 24 27
33 3 26 24 27
34 9 13 16 17
35 9 20 23 24
36 3 10 13 14
37 3 10 13 15
38 4 10 13 16
39 6 14 13 15
40 5 14 13 16
41 5 15 13 16
42 5 16 17 18
43 5 16 17 19
44 4 16 17 20
45 6 18 17 19
46 3 18 17 20
47 3 19 17 20
48 3 17 20 21
49 3 17 20 22
50 4 17 20 23
51 6 21 20 22
52 5 21 20 23
53 5 22 20 23

Dihedrals

1 6 6 1 4 5
2 7 6 1 4 5
3 8 6 1 4 5
4 12 4 1 6 9
5 13 4 1 6 9
6 14 4 1 6 9
7 1 6 9 10 13
8 2 6 9 10 13
9 3 6 9 10 13
10 1 1 6 9 10
11 2 1 6 9 10
12 3 1 6 9 10
13 4 9 10 13 16
14 5 9 10 13 16
15 6 24 27 30 31
16 7 24 27 30 31
17 8 24 27 30 31
18 12 23 24 27 30
19 13 23 24 27 30
20 14 23 24 27 30
21 1 13 16 17 20
22 2 13 16 17 20
23 3 13 16 17 20
24 1 20 23 24 27
25 2 20 23 24 27
26 3 20 23 24 27
27 1 10 13 16 17
28 2 10 13 16 17
29 3 10 13 16 17
30 4 16 17 20 23
31 5 16 17 20 23
32 1 17 20 23 24
33 2 17 20 23 24
34 3 17 20 23 24
