LAMMPS data file via write_data, version 28 Mar 2023, timestep = 100

31 atoms
7 atom types
30 bonds
6 bond types
53 angles
9 angle types
34 dihedrals
14 dihedral types

37.405891314115195 47.474830491456096 xlo xhi
12.632469591121875 20.080063292707976 ylo yhi
21.09873821388466 27.886694673627428 zlo zhi

Masses

1 15.9994
2 1.008
3 12.011
4 15.9994
5 1.008
6 15.9994
7 1.008

Pair Coeffs # lj/cut

1 0 0
2 0 0
3 0 0
4 0 0
5 0.05 1.6036
6 0 0
7 0.05 1.6036

Bond Coeffs # harmonic

1 0 0.9572
2 222.35 1.53
3 308.79 1.1111
4 359.76 1.1415
5 427.715 1.142
6 544.635 0.96

Angle Coeffs # charmm

1 0 104.52 0 0
2 50 109 0 0
3 26.5 110.1 22.53 2.179
4 45 111.5 0 0
5 13.0258 109.4 0 0
6 35.5 109 5.4 1.802
7 55 108.89 0 0
8 75.7 110.1 0 0
9 95 109.7 0 0

Dihedral Coeffs # charmm

1 0.57 1 0 0
2 0.29 2 0 0
3 0.43 3 0 0
4 0.59 1 180 0
5 1.16 2 0 0
6 0.12 1 0 0
7 0.42 2 0 0
8 0.29 3 0 0
9 2.87 1 180 0
10 0.03 2 0 0
11 0.23 3 0 0
12 1.36 1 180 0
13 0.16 2 0 0
14 1.01 3 0 0

Atoms # full

26 1 5 0 44.664397154771784 17.403633654111772 21.45952446956152 0 0 0
24 1 3 0 45.150913247069155 17.73569059304872 22.431010552745875 0 0 0
25 1 5 0 45.90685565837988 16.94401523531125 22.727157130355153 0 0 0
28 1 5 0 45.386229542508886 19.92885787218774 21.616568165274064 0 0 0
31 1 7 0 47.473887330346464 20.07930479607313 21.12036489393258 0 0 0
27 1 3 0 46.15277095145836 19.15272571580943 21.930133824973044 0 0 0
30 1 6 0 47.05230116004526 19.212522249714137 21.099417935218256 0 0 0
29 1 5 0 46.608758272371674 19.514891991727 22.904831851522914 0 0 0
5 1 7 0 38.22168461590281 12.63322808775672 24.919204056280655 0 0 0
4 1 6 0 37.7588047405701 13.43768145536383 25.183198767948806 0 0 0
7 1 5 0 37.763424890934495 16.49236509462211 25.82646091420557 0 0 0
16 1 4 0 42.27414124126247 16.277875015872883 25.5172244249188 0 0 0
22 1 5 0 42.87120034755221 16.24227608507214 23.18725705968962 0 0 0
17 1 3 0 43.46468080673084 16.472739611015143 25.301583418386794 0 0 0
20 1 3 0 43.82789143907227 16.548040192202752 23.73186419204155 0 0 0
23 1 4 0 44.1808844735257 17.63101537836543 23.268101434459446 0 0 0
21 1 5 0 44.596213834171984 15.730309521152396 23.5321113188208 0 0 0
2 1 5 0 39.40077334888292 14.382435850761626 25.17637973506144 0 0 0
1 1 3 0 38.50484899823322 14.188260611829344 25.843713060073352 0 0 0
3 1 5 0 38.8751239835243 13.559223652000645 26.710946639143454 0 0 0
19 1 5 0 44.0830865782707 15.610455384959915 25.725297155015326 0 0 0
8 1 5 0 37.40683447522483 15.64026674533061 27.38642187229575 0 0 0
6 1 3 0 38.23691712445488 15.862408539928536 26.640969315544776 0 0 0
9 1 4 0 38.92700415351567 16.702300587155424 27.380097463653865 0 0 0
14 1 5 0 41.826933213361755 15.783441982854868 27.277610025773974 0 0 0
13 1 3 0 41.68555544125599 16.66522364134979 26.577007070486914 0 0 0
10 1 3 0 40.014966304366524 17.248675277315222 26.970641875742896 0 0 0
15 1 5 0 42.35392888242269 17.501808889035114 26.954751098530373 0 0 0
18 1 5 0 43.851226646980415 17.43205352610109 25.778482600008875 0 0 0
11 1 5 0 39.74845511785812 17.976896639904595 26.142458549686463 0 0 0
12 1 5 0 40.20403226703841 17.90555621007464 27.88601495229383 0 0 0

Velocities

26 -0 -0 0
24 -0 0 0
25 -0 0 0
28 -0 0 -0
31 0 0 0
27 -0 0 -0
30 0 -0 0
29 -0 -0 -0
5 -0 0 0
4 -0 -0 -0
7 -0 0 -0
16 -0 0 0
22 0 -0 0
17 0 -0 -0
20 0 -0 -0
23 0 -0 -0
21 0 -0 0
2 0 0 -0
1 0 0 0
3 0 0 0
19 0 -0 0
8 0 -0 -0
6 0 0 -0
9 0 -0 0
14 -0 0 0
13 -0 0 0
10 -0 0 0
15 -0 -0 0
18 -0 -0 -0
11 -0 -0 0
12 0 0 0

Bonds

1 2 24 27
2 4 24 25
3 4 24 26
4 5 27 30
5 4 27 28
6 4 27 29
7 6 30 31
8 6 4 5
9 4 16 17
10 2 17 20
11 4 17 18
12 4 17 19
13 4 20 23
14 4 20 21
15 4 20 22
16 4 23 24
17 2 1 6
18 5 1 4
19 4 1 2
20 4 1 3
21 4 6 9
22 4 6 7
23 4 6 8
24 4 9 10
25 4 13 16
26 4 13 14
27 4 13 15
28 2 10 13
29 4 10 11
30 4 10 12

Angles

1 5 23 24 25
2 5 23 24 26
3 4 23 24 27
4 6 25 24 26
5 3 25 24 27
6 3 26 24 27
7 3 24 27 28
8 3 24 27 29
9 8 24 27 30
10 6 28 27 29
11 7 28 27 30
12 7 29 27 30
13 2 27 30 31
14 2 1 4 5
15 9 13 16 17
16 5 16 17 18
17 5 16 17 19
18 4 16 17 20
19 6 18 17 19
20 3 18 17 20
21 3 19 17 20
22 3 17 20 21
23 3 17 20 22
24 4 17 20 23
25 6 21 20 22
26 5 21 20 23
27 5 22 20 23
28 9 20 23 24
29 6 2 1 3
30 7 2 1 4
31 3 2 1 6
32 7 3 1 4
33 3 3 1 6
34 8 4 1 6
35 3 1 6 7
36 3 1 6 8
37 4 1 6 9
38 6 7 6 8
39 5 7 6 9
40 5 8 6 9
41 9 6 9 10
42 3 10 13 14
43 3 10 13 15
44 4 10 13 16
45 6 14 13 15
46 5 14 13 16
47 5 15 13 16
48 5 9 10 11
49 5 9 10 12
50 4 9 10 13
51 6 11 10 12
52 3 11 10 13
53 3 12 10 13

Dihedrals

1 12 23 24 27 30
2 13 23 24 27 30
3 14 23 24 27 30
4 6 24 27 30 31
5 7 24 27 30 31
6 8 24 27 30 31
7 1 13 16 17 20
8 2 13 16 17 20
9 3 13 16 17 20
10 4 16 17 20 23
11 5 16 17 20 23
12 1 17 20 23 24
13 2 17 20 23 24
14 3 17 20 23 24
15 1 20 23 24 27
16 2 20 23 24 27
17 3 20 23 24 27
18 6 6 1 4 5
19 7 6 1 4 5
20 8 6 1 4 5
21 12 4 1 6 9
22 13 4 1 6 9
23 14 4 1 6 9
24 1 1 6 9 10
25 2 1 6 9 10
26 3 1 6 9 10
27 1 6 9 10 13
28 2 6 9 10 13
29 3 6 9 10 13
30 1 10 13 16 17
31 2 10 13 16 17
32 3 10 13 16 17
33 4 9 10 13 16
34 5 9 10 13 16
