LAMMPS data file via write_data, version 29 Sep 2021, timestep = 1

31 atoms
7 atom types
30 bonds
6 bond types
53 angles
9 angle types
34 dihedrals
14 dihedral types

7.529533888847549 15.29380870972482 xlo xhi
71.25097826097975 77.27729750360504 ylo yhi
-7.829898589228284 -1.967461991169331 zlo zhi

Masses

1 15.9994
2 1.008
3 12.011
4 15.9994
5 1.008
6 15.9994
7 1.008

Pair Coeffs # lj/cut

1 0 0
2 0 0
3 0 0
4 0 0
5 0.05 1.6036
6 0 0
7 0.05 1.6036

Bond Coeffs # harmonic

1 0 0.9572
2 222.35 1.53
3 308.79 1.1111
4 359.76 1.1415
5 427.715 1.142
6 544.635 0.96

Angle Coeffs # charmm

1 0 104.52 0 0
2 50 109 0 0
3 26.5 110.1 22.53 2.179
4 45 111.5 0 0
5 13.0258 109.4 0 0
6 35.5 109 5.4 1.802
7 55 108.89 0 0
8 75.7 110.1 0 0
9 95 109.7 0 0

Dihedral Coeffs # charmm

1 0.57 1 0 0
2 0.29 2 0 0
3 0.43 3 0 0
4 0.59 1 180 0
5 1.16 2 0 0
6 0.12 1 0 0
7 0.42 2 0 0
8 0.29 3 0 0
9 2.87 1 180 0
10 0.03 2 0 0
11 0.23 3 0 0
12 1.36 1 180 0
13 0.16 2 0 0
14 1.01 3 0 0

Atoms # full

20 1 3 0 8.61286181999396 73.23577918765555 -6.8946486637125535 0 0 0
23 1 4 0 8.116729781949005 72.23796347363907 -6.259783542803192 0 0 0
11 1 5 0 11.28243914757347 73.21957490417455 -6.597287428020614 0 0 0
21 1 5 0 9.474824203258557 72.82191642348414 -7.504323509684094 0 0 0
22 1 5 0 7.776250127971206 73.42267135553129 -7.643953031704334 0 0 0
17 1 3 0 9.131246183517547 74.94277306959101 -6.382629813639333 0 0 0
12 1 5 0 12.310213624954708 74.06480815718959 -7.829311863860126 0 0 0
10 1 3 0 12.06288314195497 74.04151444227814 -6.719771223209399 0 0 0
9 1 4 0 13.061029426057498 73.57538103432279 -6.134349134189489 0 0 0
7 1 5 0 14.5034835490002 74.62302362610238 -6.837575883957027 0 0 0
18 1 5 0 8.254255761575765 75.5747984325835 -6.7384992172943425 0 0 0
13 1 3 0 11.23289792289514 75.53438163599348 -6.354256376478639 0 0 0
16 1 4 0 10.052106517148156 75.80940935941871 -6.63070372705718 0 0 0
15 1 5 0 11.811668609195246 76.34847988605668 -6.904360855859393 0 0 0
26 1 5 0 9.258276723676767 71.25158137034045 -5.068837052588198 0 0 0
25 1 5 0 7.53031078376293 71.56184688870079 -4.616787798727042 0 0 0
24 1 3 0 8.467599962619122 72.06220051903773 -5.019316278721964 0 0 0
19 1 5 0 9.070773630663584 74.92828046263138 -5.251441658314553 0 0 0
29 1 5 0 9.870199967789771 73.75828250996541 -4.069460054955531 0 0 0
8 1 5 0 14.7324984757213 73.59909907766703 -5.351004051665754 0 0 0
6 1 3 0 14.041588685356881 74.3603030665708 -5.836919656131943 0 0 0
14 1 5 0 11.386833304699936 75.74450195653615 -5.248064070901555 0 0 0
5 1 7 0 15.086723927273344 77.27669439424434 -3.96672167836655 0 0 0
2 1 5 0 13.517921006474289 76.58911624009396 -5.214301538064138 0 0 0
4 1 6 0 15.293031814809439 76.54714287552558 -4.562583755407471 0 0 0
1 1 3 0 14.283974186238277 75.86615295928986 -4.794137499753794 0 0 0
27 1 3 0 9.01278776863083 73.18624172158196 -3.5985057516382963 0 0 0
30 1 6 0 9.36680706415736 72.98017773769567 -2.4139441333457654 0 0 0
28 1 5 0 8.143127495121643 73.909205749089 -3.5276383515579313 0 0 0
31 1 7 0 9.59083244816332 73.80607060394382 -1.9680487165374883 0 0 0
3 1 5 0 13.899217469336973 75.53524003065567 -3.7801402773579706 0 0 0

Velocities

20 0 -0 -0
23 0 -0 -0
11 0 -0 0
21 -0 -0 -0
22 0 -0 -0
17 0 -0 0
12 -0 -0 -0
10 0 0 0
9 0 -0 -0
7 0 -0 -0
18 0 -0 -0
13 -0 0 -0
16 0 -0 -0
15 0 -0 -0
26 0 0 0
25 0 -0 -0
24 -0 0 0
19 -0 0 0
29 0 -0 -0
8 -0 -0 -0
6 -0 0 -0
14 0 -0 0
5 -0 0 -0
2 -0 -0 0
4 -0 0 -0
1 0 -0 0
27 -0 0 0
30 0 0 -0
28 0 0 0
31 -0 -0 0
3 0 0 0

Bonds

1 4 20 23
2 4 20 21
3 4 20 22
4 4 23 24
5 2 17 20
6 4 17 18
7 4 17 19
8 2 10 13
9 4 10 11
10 4 10 12
11 4 9 10
12 4 13 16
13 4 13 14
14 4 13 15
15 4 16 17
16 2 24 27
17 4 24 25
18 4 24 26
19 4 6 9
20 4 6 7
21 4 6 8
22 6 4 5
23 2 1 6
24 5 1 4
25 4 1 2
26 4 1 3
27 5 27 30
28 4 27 28
29 4 27 29
30 6 30 31

Angles

1 3 17 20 21
2 3 17 20 22
3 4 17 20 23
4 6 21 20 22
5 5 21 20 23
6 5 22 20 23
7 9 20 23 24
8 5 16 17 18
9 5 16 17 19
10 4 16 17 20
11 6 18 17 19
12 3 18 17 20
13 3 19 17 20
14 5 9 10 11
15 5 9 10 12
16 4 9 10 13
17 6 11 10 12
18 3 11 10 13
19 3 12 10 13
20 9 6 9 10
21 3 10 13 14
22 3 10 13 15
23 4 10 13 16
24 6 14 13 15
25 5 14 13 16
26 5 15 13 16
27 9 13 16 17
28 5 23 24 25
29 5 23 24 26
30 4 23 24 27
31 6 25 24 26
32 3 25 24 27
33 3 26 24 27
34 3 1 6 7
35 3 1 6 8
36 4 1 6 9
37 6 7 6 8
38 5 7 6 9
39 5 8 6 9
40 2 1 4 5
41 6 2 1 3
42 7 2 1 4
43 3 2 1 6
44 7 3 1 4
45 3 3 1 6
46 8 4 1 6
47 3 24 27 28
48 3 24 27 29
49 8 24 27 30
50 6 28 27 29
51 7 28 27 30
52 7 29 27 30
53 2 27 30 31

Dihedrals

1 1 17 20 23 24
2 2 17 20 23 24
3 3 17 20 23 24
4 1 20 23 24 27
5 2 20 23 24 27
6 3 20 23 24 27
7 4 16 17 20 23
8 5 16 17 20 23
9 4 9 10 13 16
10 5 9 10 13 16
11 1 6 9 10 13
12 2 6 9 10 13
13 3 6 9 10 13
14 1 10 13 16 17
15 2 10 13 16 17
16 3 10 13 16 17
17 1 13 16 17 20
18 2 13 16 17 20
19 3 13 16 17 20
20 12 23 24 27 30
21 13 23 24 27 30
22 14 23 24 27 30
23 1 1 6 9 10
24 2 1 6 9 10
25 3 1 6 9 10
26 6 6 1 4 5
27 7 6 1 4 5
28 8 6 1 4 5
29 12 4 1 6 9
30 13 4 1 6 9
31 14 4 1 6 9
32 6 24 27 30 31
33 7 24 27 30 31
34 8 24 27 30 31
