LAMMPS data file via write_data, version 29 Sep 2021, timestep = 10120

31 atoms
7 atom types
30 bonds
6 bond types
53 angles
9 angle types
34 dihedrals
14 dihedral types

49.863920070288465 57.8370591279902 xlo xhi
22.504014490431516 29.892953576204132 ylo yhi
23.712900466738084 30.21021410275756 zlo zhi

Masses

1 15.9994
2 1.008
3 12.011
4 15.9994
5 1.008
6 15.9994
7 1.008

Pair Coeffs # lj/cut

1 0 0
2 0 0
3 0 0
4 0 0
5 0.05 1.6036
6 0 0
7 0.05 1.6036

Bond Coeffs # harmonic

1 0 0.9572
2 222.35 1.53
3 308.79 1.1111
4 359.76 1.1415
5 427.715 1.142
6 544.635 0.96

Angle Coeffs # charmm

1 0 104.52 0 0
2 50 109 0 0
3 26.5 110.1 22.53 2.179
4 45 111.5 0 0
5 13.0258 109.4 0 0
6 35.5 109 5.4 1.802
7 55 108.89 0 0
8 75.7 110.1 0 0
9 95 109.7 0 0

Dihedral Coeffs # charmm

1 0.57 1 0 0
2 0.29 2 0 0
3 0.43 3 0 0
4 0.59 1 180 0
5 1.16 2 0 0
6 0.12 1 0 0
7 0.42 2 0 0
8 0.29 3 0 0
9 2.87 1 180 0
10 0.03 2 0 0
11 0.23 3 0 0
12 1.36 1 180 0
13 0.16 2 0 0
14 1.01 3 0 0

Atoms # full

13 1 3 0 53.435725740735904 23.627602881390217 26.863811290935985 0 0 0
11 1 5 0 52.94911970463725 23.16798404488961 24.71017003510514 0 0 0
14 1 5 0 53.827911399606805 22.699865999390635 27.39758631010605 0 0 0
16 1 4 0 52.26495762064689 23.724098059360838 27.222193753139884 0 0 0
18 1 5 0 52.79152011869578 24.951321565149392 28.59970111695433 0 0 0
19 1 5 0 52.142076444839596 23.296314401409834 29.04520184770409 0 0 0
21 1 5 0 49.866920070288465 24.890694390173344 27.85486435766404 0 0 0
22 1 5 0 50.033963046187594 24.078922227556212 29.4663837425052 0 0 0
17 1 3 0 52.00050508884757 24.178254530411582 28.338040267314998 0 0 0
20 1 3 0 50.52183911235639 24.856839996185315 28.784556347741606 0 0 0
23 1 4 0 50.435052541288734 25.923288682133606 29.440453987833873 0 0 0
12 1 5 0 54.55867606139741 22.507014490431516 25.234384686761818 0 0 0
15 1 5 0 54.01690268484086 24.51893720562465 27.263884798547984 0 0 0
10 1 3 0 53.90602781001017 23.439441603978995 25.271921045511025 0 0 0
9 1 4 0 54.4304750460043 24.332834015180236 24.579616354372618 0 0 0
7 1 5 0 56.071172748686145 24.388982344396574 23.715900466738084 0 0 0
8 1 5 0 56.1011697600619 23.981053946776324 25.498081132532352 0 0 0
6 1 3 0 55.66054149798082 24.68968706934787 24.73275396427349 0 0 0
26 1 5 0 50.63867669761289 27.003543689310874 27.836221226256516 0 0 0
25 1 5 0 49.922746744245465 27.69150756999133 29.366962550619974 0 0 0
28 1 5 0 53.10381786583911 27.761306606390555 28.813545302587027 0 0 0
29 1 5 0 52.24311054943339 28.550059482214838 30.20721410275756 0 0 0
24 1 3 0 50.79844467126336 27.09865271222667 28.95147606992644 0 0 0
27 1 3 0 52.19377644938925 28.37736249639736 29.088596666878434 0 0 0
31 1 7 0 53.21920326038875 29.88995357620413 28.871662997738948 0 0 0
30 1 6 0 52.38734675098627 29.504619548782696 28.570771221344483 0 0 0
5 1 7 0 57.8340591279902 27.468030884417832 25.303176458652445 0 0 0
4 1 6 0 57.69417278418688 26.527354192852656 25.14565076185819 0 0 0
2 1 5 0 56.01619320177177 26.64456700486154 26.00151011808043 0 0 0
1 1 3 0 56.4947868554521 26.277253077584355 25.040893671676947 0 0 0
3 1 5 0 56.11093158605237 26.943071114197863 24.206525178071633 0 0 0

Velocities

13 -0 0 -0
11 -0 0 -0
14 0 0 -0
16 -0 -0 0
18 -0 0 -0
19 0 0 0
21 -0 -0 0
22 0 0 0
17 -0 -0 -0
20 -0 -0 0
23 -0 0 -0
12 -0 0 -0
15 0 0 -0
10 -0 0 0
9 0 -0 -0
7 0 -0 0
8 -0 0 0
6 0 -0 0
26 -0 0 -0
25 0 -0 0
28 0 0 0
29 -0 0 -0
24 0 -0 -0
27 0 -0 -0
31 -0 0 0
30 0 -0 0
5 0 0 -0
4 -0 0 0
2 -0 0 -0
1 0 -0 -0
3 0 0 0

Bonds

1 4 13 16
2 4 13 14
3 4 13 15
4 4 16 17
5 2 17 20
6 4 17 18
7 4 17 19
8 4 20 23
9 4 20 21
10 4 20 22
11 4 23 24
12 2 10 13
13 4 10 11
14 4 10 12
15 4 9 10
16 4 6 9
17 4 6 7
18 4 6 8
19 2 24 27
20 4 24 25
21 4 24 26
22 5 27 30
23 4 27 28
24 4 27 29
25 6 30 31
26 6 4 5
27 2 1 6
28 5 1 4
29 4 1 2
30 4 1 3

Angles

1 3 10 13 14
2 3 10 13 15
3 4 10 13 16
4 6 14 13 15
5 5 14 13 16
6 5 15 13 16
7 9 13 16 17
8 5 16 17 18
9 5 16 17 19
10 4 16 17 20
11 6 18 17 19
12 3 18 17 20
13 3 19 17 20
14 3 17 20 21
15 3 17 20 22
16 4 17 20 23
17 6 21 20 22
18 5 21 20 23
19 5 22 20 23
20 9 20 23 24
21 5 9 10 11
22 5 9 10 12
23 4 9 10 13
24 6 11 10 12
25 3 11 10 13
26 3 12 10 13
27 9 6 9 10
28 3 1 6 7
29 3 1 6 8
30 4 1 6 9
31 6 7 6 8
32 5 7 6 9
33 5 8 6 9
34 5 23 24 25
35 5 23 24 26
36 4 23 24 27
37 6 25 24 26
38 3 25 24 27
39 3 26 24 27
40 3 24 27 28
41 3 24 27 29
42 8 24 27 30
43 6 28 27 29
44 7 28 27 30
45 7 29 27 30
46 2 27 30 31
47 2 1 4 5
48 6 2 1 3
49 7 2 1 4
50 3 2 1 6
51 7 3 1 4
52 3 3 1 6
53 8 4 1 6

Dihedrals

1 1 10 13 16 17
2 2 10 13 16 17
3 3 10 13 16 17
4 1 13 16 17 20
5 2 13 16 17 20
6 3 13 16 17 20
7 4 16 17 20 23
8 5 16 17 20 23
9 1 17 20 23 24
10 2 17 20 23 24
11 3 17 20 23 24
12 1 20 23 24 27
13 2 20 23 24 27
14 3 20 23 24 27
15 4 9 10 13 16
16 5 9 10 13 16
17 1 6 9 10 13
18 2 6 9 10 13
19 3 6 9 10 13
20 1 1 6 9 10
21 2 1 6 9 10
22 3 1 6 9 10
23 12 23 24 27 30
24 13 23 24 27 30
25 14 23 24 27 30
26 6 24 27 30 31
27 7 24 27 30 31
28 8 24 27 30 31
29 6 6 1 4 5
30 7 6 1 4 5
31 8 6 1 4 5
32 12 4 1 6 9
33 13 4 1 6 9
34 14 4 1 6 9
