LAMMPS data file via write_data, version 29 Sep 2021, timestep = 10120

31 atoms
7 atom types
30 bonds
6 bond types
53 angles
9 angle types
34 dihedrals
14 dihedral types

63.35684179056638 71.39584332777049 xlo xhi
-67.68902893649295 -59.7512639055213 ylo yhi
-48.88170409724438 -42.25558585695737 zlo zhi

Masses

1 15.9994
2 1.008
3 12.011
4 15.9994
5 1.008
6 15.9994
7 1.008

Pair Coeffs # lj/cut

1 0 0
2 0 0
3 0 0
4 0 0
5 0.05 1.6036
6 0 0
7 0.05 1.6036

Bond Coeffs # harmonic

1 0 0.9572
2 222.35 1.53
3 308.79 1.1111
4 359.76 1.1415
5 427.715 1.142
6 544.635 0.96

Angle Coeffs # charmm

1 0 104.52 0 0
2 50 109 0 0
3 26.5 110.1 22.53 2.179
4 45 111.5 0 0
5 13.0258 109.4 0 0
6 35.5 109 5.4 1.802
7 55 108.89 0 0
8 75.7 110.1 0 0
9 95 109.7 0 0

Dihedral Coeffs # charmm

1 0.57 1 0 0
2 0.29 2 0 0
3 0.43 3 0 0
4 0.59 1 180 0
5 1.16 2 0 0
6 0.12 1 0 0
7 0.42 2 0 0
8 0.29 3 0 0
9 2.87 1 180 0
10 0.03 2 0 0
11 0.23 3 0 0
12 1.36 1 180 0
13 0.16 2 0 0
14 1.01 3 0 0

Atoms # full

27 1 3 0 64.97575673891333 -65.94732859824312 -45.34281885644911 0 0 0
30 1 6 0 64.52345891349836 -67.08677704493637 -45.41019522142525 0 0 0
24 1 3 0 64.42899657137929 -64.4373587995768 -46.18625085286252 0 0 0
19 1 5 0 67.00359843127603 -64.04085868008742 -47.78292362535864 0 0 0
26 1 5 0 64.37336719248964 -64.71794360180209 -47.28198247613835 0 0 0
25 1 5 0 63.35984179056638 -64.31786137532264 -45.816254026359566 0 0 0
28 1 5 0 66.06989300574877 -66.03044810284663 -45.63086699355648 0 0 0
29 1 5 0 64.9451042801783 -65.66470886323228 -44.24453038958344 0 0 0
31 1 7 0 65.02617348030587 -67.68602893649295 -44.84689365402853 0 0 0
12 1 5 0 70.65960402244576 -64.3513561805364 -46.98037537282314 0 0 0
11 1 5 0 69.30329476610508 -64.34870058448222 -45.77645843200344 0 0 0
14 1 5 0 68.77145501950352 -63.83216480729605 -48.32456916710587 0 0 0
17 1 3 0 66.8583041870915 -62.91477331524459 -47.7885085661839 0 0 0
20 1 3 0 65.32826773216374 -62.6293968149587 -47.12146453145187 0 0 0
23 1 4 0 64.80446165169933 -63.20705682587538 -46.14513639653692 0 0 0
18 1 5 0 66.75129510483097 -62.597042093973855 -48.87870409724438 0 0 0
21 1 5 0 65.34800923593103 -61.53132058166216 -46.809484929813756 0 0 0
22 1 5 0 64.59171314125507 -62.68433229694855 -47.98821010776247 0 0 0
4 1 6 0 70.09698836031595 -60.70812212185059 -42.39847341666782 0 0 0
1 1 3 0 70.37449192227439 -60.9950065414926 -43.575570052190905 0 0 0
9 1 4 0 70.78865891408437 -63.04876637406977 -45.665866591542 0 0 0
6 1 3 0 70.49420029778086 -62.62718471432006 -44.459573365402534 0 0 0
10 1 3 0 69.96481220644479 -63.65881736610457 -46.39124230800722 0 0 0
13 1 3 0 68.97853854211353 -62.98597282573812 -47.59253293682786 0 0 0
16 1 4 0 67.91379470680747 -62.3771534090517 -47.460278478866506 0 0 0
5 1 7 0 70.12511115863778 -59.7542639055213 -42.25858585695737 0 0 0
2 1 5 0 69.63184241073796 -60.42230093430595 -44.212255054797744 0 0 0
3 1 5 0 71.39284332777049 -60.53525526479501 -43.767439911203326 0 0 0
7 1 5 0 69.54353684560712 -63.1670938049211 -44.16783846314635 0 0 0
8 1 5 0 71.34851444707435 -63.12676843873835 -43.89997048032285 0 0 0
15 1 5 0 69.65095137901216 -62.244955230193014 -48.13805304848579 0 0 0

Velocities

27 0 0 0
30 -0 -0 -0
24 0 -0 -0
19 0 0 -0
26 -0 -0 -0
25 0 0 0
28 0 0 0
29 -0 0 0
31 -0 0 0
12 -0 -0 0
11 0 -0 -0
14 -0 0 -0
17 0 0 0
20 0 0 0
23 -0 -0 0
18 0 0 0
21 -0 0 0
22 0 0 -0
4 0 -0 0
1 -0 0 -0
9 0 -0 -0
6 -0 -0 0
10 -0 0 0
13 0 0 -0
16 -0 -0 0
5 0 -0 -0
2 -0 0 -0
3 -0 0 -0
7 0 -0 -0
8 -0 -0 -0
15 0 -0 -0

Bonds

1 5 27 30
2 4 27 28
3 4 27 29
4 6 30 31
5 2 24 27
6 4 24 25
7 4 24 26
8 2 17 20
9 4 17 18
10 4 17 19
11 4 20 23
12 4 20 21
13 4 20 22
14 4 23 24
15 6 4 5
16 2 1 6
17 5 1 4
18 4 1 2
19 4 1 3
20 4 9 10
21 4 6 9
22 4 6 7
23 4 6 8
24 2 10 13
25 4 10 11
26 4 10 12
27 4 13 16
28 4 13 14
29 4 13 15
30 4 16 17

Angles

1 3 24 27 28
2 3 24 27 29
3 8 24 27 30
4 6 28 27 29
5 7 28 27 30
6 7 29 27 30
7 2 27 30 31
8 5 23 24 25
9 5 23 24 26
10 4 23 24 27
11 6 25 24 26
12 3 25 24 27
13 3 26 24 27
14 5 16 17 18
15 5 16 17 19
16 4 16 17 20
17 6 18 17 19
18 3 18 17 20
19 3 19 17 20
20 3 17 20 21
21 3 17 20 22
22 4 17 20 23
23 6 21 20 22
24 5 21 20 23
25 5 22 20 23
26 9 20 23 24
27 2 1 4 5
28 6 2 1 3
29 7 2 1 4
30 3 2 1 6
31 7 3 1 4
32 3 3 1 6
33 8 4 1 6
34 9 6 9 10
35 3 1 6 7
36 3 1 6 8
37 4 1 6 9
38 6 7 6 8
39 5 7 6 9
40 5 8 6 9
41 5 9 10 11
42 5 9 10 12
43 4 9 10 13
44 6 11 10 12
45 3 11 10 13
46 3 12 10 13
47 3 10 13 14
48 3 10 13 15
49 4 10 13 16
50 6 14 13 15
51 5 14 13 16
52 5 15 13 16
53 9 13 16 17

Dihedrals

1 6 24 27 30 31
2 7 24 27 30 31
3 8 24 27 30 31
4 12 23 24 27 30
5 13 23 24 27 30
6 14 23 24 27 30
7 4 16 17 20 23
8 5 16 17 20 23
9 1 17 20 23 24
10 2 17 20 23 24
11 3 17 20 23 24
12 1 20 23 24 27
13 2 20 23 24 27
14 3 20 23 24 27
15 6 6 1 4 5
16 7 6 1 4 5
17 8 6 1 4 5
18 12 4 1 6 9
19 13 4 1 6 9
20 14 4 1 6 9
21 1 6 9 10 13
22 2 6 9 10 13
23 3 6 9 10 13
24 1 1 6 9 10
25 2 1 6 9 10
26 3 1 6 9 10
27 4 9 10 13 16
28 5 9 10 13 16
29 1 10 13 16 17
30 2 10 13 16 17
31 3 10 13 16 17
32 1 13 16 17 20
33 2 13 16 17 20
34 3 13 16 17 20
