LAMMPS data file via write_data, version 29 Sep 2021, timestep = 10120

31 atoms
7 atom types
30 bonds
6 bond types
53 angles
9 angle types
34 dihedrals
14 dihedral types

0.33980311518365347 7.22478298290833 xlo xhi
47.486608711612206 53.0371598294213 ylo yhi
35.479184610115745 45.798900668291076 zlo zhi

Masses

1 15.9994
2 1.008
3 12.011
4 15.9994
5 1.008
6 15.9994
7 1.008

Pair Coeffs # lj/cut

1 0 0
2 0 0
3 0 0
4 0 0
5 0.05 1.6036
6 0 0
7 0.05 1.6036

Bond Coeffs # harmonic

1 0 0.9572
2 222.35 1.53
3 308.79 1.1111
4 359.76 1.1415
5 427.715 1.142
6 544.635 0.96

Angle Coeffs # charmm

1 0 104.52 0 0
2 50 109 0 0
3 26.5 110.1 22.53 2.179
4 45 111.5 0 0
5 13.0258 109.4 0 0
6 35.5 109 5.4 1.802
7 55 108.89 0 0
8 75.7 110.1 0 0
9 95 109.7 0 0

Dihedral Coeffs # charmm

1 0.57 1 0 0
2 0.29 2 0 0
3 0.43 3 0 0
4 0.59 1 180 0
5 1.16 2 0 0
6 0.12 1 0 0
7 0.42 2 0 0
8 0.29 3 0 0
9 2.87 1 180 0
10 0.03 2 0 0
11 0.23 3 0 0
12 1.36 1 180 0
13 0.16 2 0 0
14 1.01 3 0 0

Atoms # full

19 1 5 0 6.164364864846529 50.76973798753956 38.78368271879818 0 0 0
26 1 5 0 5.6109622169090665 47.489608711612206 37.12304382750526 0 0 0
25 1 5 0 7.22178298290833 48.169421094074494 36.62027708389231 0 0 0
28 1 5 0 4.689544605231912 50.06524846747057 37.37595352541644 0 0 0
29 1 5 0 6.289732670649333 50.66286705035646 36.75651378490093 0 0 0
31 1 7 0 4.628808181770995 51.02150444554613 35.482184610115745 0 0 0
24 1 3 0 6.337712604034791 48.33767580052467 37.31231381013356 0 0 0
23 1 4 0 6.873625485836038 48.01917903872348 38.43524930986022 0 0 0
27 1 3 0 5.498766011571295 49.86484866801169 36.60785793547537 0 0 0
30 1 6 0 4.974047094091626 50.12087422596719 35.50295829876879 0 0 0
7 1 5 0 1.2155588672441897 50.510039038887776 41.82633428635816 0 0 0
11 1 5 0 2.1915798996669955 53.0341598294213 39.69787098711539 0 0 0
12 1 5 0 1.7194717028130402 51.290651229933914 39.71307939539297 0 0 0
10 1 3 0 2.3058710885191083 52.06815721662379 40.30015262772861 0 0 0
9 1 4 0 1.7135009874263256 52.369201595034056 41.39230036924213 0 0 0
14 1 5 0 4.406507724528568 51.75362564454496 41.15239182219901 0 0 0
15 1 5 0 4.379749244612664 52.5495139010454 39.50678946984567 0 0 0
18 1 5 0 6.036738937014811 50.545521768925944 40.58991429404731 0 0 0
21 1 5 0 7.220532673475779 48.5266528163336 40.16654053888386 0 0 0
22 1 5 0 5.594399127880447 47.79986867303941 39.84196633352313 0 0 0
13 1 3 0 3.9675123530592566 51.672767504070286 40.1071856555036 0 0 0
17 1 3 0 5.627982134437749 50.18120613864337 39.59519016937271 0 0 0
20 1 3 0 6.350400111867266 48.53947607347588 39.43060767454074 0 0 0
16 1 4 0 4.411912773245289 50.62434382855344 39.535484692444506 0 0 0
5 1 7 0 1.9132466573936449 50.11134056156674 45.795900668291075 0 0 0
2 1 5 0 1.8388305249468901 51.939188199041524 44.69072482972547 0 0 0
3 1 5 0 2.9432018414861383 50.66986830594686 44.004423329787095 0 0 0
8 1 5 0 0.3428031151836535 51.931940188005804 42.557411882409 0 0 0
6 1 3 0 1.372601947549748 51.495031990974304 42.35743974841077 0 0 0
4 1 6 0 1.4038929380816607 50.106191830632945 44.97599140912988 0 0 0
1 1 3 0 1.8544043692143777 50.94750930183911 44.14422908261431 0 0 0

Velocities

19 -0 0 0
26 -0 0 0
25 -0 -0 -0
28 0 0 -0
29 0 -0 -0
31 -0 -0 -0
24 -0 0 0
23 -0 0 0
27 -0 0 0
30 0 -0 0
7 -0 0 0
11 0 -0 -0
12 -0 -0 0
10 -0 0 0
9 0 0 -0
14 -0 -0 0
15 -0 -0 -0
18 -0 -0 -0
21 0 -0 0
22 0 0 0
13 -0 0 0
17 -0 -0 -0
20 0 -0 -0
16 0 0 -0
5 0 0 -0
2 0 0 -0
3 0 -0 0
8 0 0 -0
6 0 0 -0
4 -0 0 -0
1 0 -0 -0

Bonds

1 2 24 27
2 4 24 25
3 4 24 26
4 4 23 24
5 5 27 30
6 4 27 28
7 4 27 29
8 6 30 31
9 2 10 13
10 4 10 11
11 4 10 12
12 4 9 10
13 4 13 16
14 4 13 14
15 4 13 15
16 2 17 20
17 4 17 18
18 4 17 19
19 4 20 23
20 4 20 21
21 4 20 22
22 4 16 17
23 4 6 9
24 4 6 7
25 4 6 8
26 6 4 5
27 2 1 6
28 5 1 4
29 4 1 2
30 4 1 3

Angles

1 5 23 24 25
2 5 23 24 26
3 4 23 24 27
4 6 25 24 26
5 3 25 24 27
6 3 26 24 27
7 9 20 23 24
8 3 24 27 28
9 3 24 27 29
10 8 24 27 30
11 6 28 27 29
12 7 28 27 30
13 7 29 27 30
14 2 27 30 31
15 5 9 10 11
16 5 9 10 12
17 4 9 10 13
18 6 11 10 12
19 3 11 10 13
20 3 12 10 13
21 9 6 9 10
22 3 10 13 14
23 3 10 13 15
24 4 10 13 16
25 6 14 13 15
26 5 14 13 16
27 5 15 13 16
28 5 16 17 18
29 5 16 17 19
30 4 16 17 20
31 6 18 17 19
32 3 18 17 20
33 3 19 17 20
34 3 17 20 21
35 3 17 20 22
36 4 17 20 23
37 6 21 20 22
38 5 21 20 23
39 5 22 20 23
40 9 13 16 17
41 3 1 6 7
42 3 1 6 8
43 4 1 6 9
44 6 7 6 8
45 5 7 6 9
46 5 8 6 9
47 2 1 4 5
48 6 2 1 3
49 7 2 1 4
50 3 2 1 6
51 7 3 1 4
52 3 3 1 6
53 8 4 1 6

Dihedrals

1 12 23 24 27 30
2 13 23 24 27 30
3 14 23 24 27 30
4 1 20 23 24 27
5 2 20 23 24 27
6 3 20 23 24 27
7 6 24 27 30 31
8 7 24 27 30 31
9 8 24 27 30 31
10 4 9 10 13 16
11 5 9 10 13 16
12 1 6 9 10 13
13 2 6 9 10 13
14 3 6 9 10 13
15 1 10 13 16 17
16 2 10 13 16 17
17 3 10 13 16 17
18 4 16 17 20 23
19 5 16 17 20 23
20 1 17 20 23 24
21 2 17 20 23 24
22 3 17 20 23 24
23 1 13 16 17 20
24 2 13 16 17 20
25 3 13 16 17 20
26 1 1 6 9 10
27 2 1 6 9 10
28 3 1 6 9 10
29 6 6 1 4 5
30 7 6 1 4 5
31 8 6 1 4 5
32 12 4 1 6 9
33 13 4 1 6 9
34 14 4 1 6 9
