LAMMPS data file via write_data, version 29 Sep 2021, timestep = 10120

31 atoms
7 atom types
30 bonds
6 bond types
53 angles
9 angle types
34 dihedrals
14 dihedral types

81.81141779933202 87.708789348838 xlo xhi
-19.539048232425227 -9.647043903818096 ylo yhi
3.6284096420920693 10.203415723246001 zlo zhi

Masses

1 15.9994
2 1.008
3 12.011
4 15.9994
5 1.008
6 15.9994
7 1.008

Pair Coeffs # lj/cut

1 0 0
2 0 0
3 0 0
4 0 0
5 0.05 1.6036
6 0 0
7 0.05 1.6036

Bond Coeffs # harmonic

1 0 0.9572
2 222.35 1.53
3 308.79 1.1111
4 359.76 1.1415
5 427.715 1.142
6 544.635 0.96

Angle Coeffs # charmm

1 0 104.52 0 0
2 50 109 0 0
3 26.5 110.1 22.53 2.179
4 45 111.5 0 0
5 13.0258 109.4 0 0
6 35.5 109 5.4 1.802
7 55 108.89 0 0
8 75.7 110.1 0 0
9 95 109.7 0 0

Dihedral Coeffs # charmm

1 0.57 1 0 0
2 0.29 2 0 0
3 0.43 3 0 0
4 0.59 1 180 0
5 1.16 2 0 0
6 0.12 1 0 0
7 0.42 2 0 0
8 0.29 3 0 0
9 2.87 1 180 0
10 0.03 2 0 0
11 0.23 3 0 0
12 1.36 1 180 0
13 0.16 2 0 0
14 1.01 3 0 0

Atoms # full

5 1 7 0 84.14960108663139 -18.559241943067367 3.6314096420920694 0 0 0
2 1 5 0 84.79506959269791 -18.042718980081972 5.588964900829089 0 0 0
3 1 5 0 83.76077954296638 -19.536048232425227 5.461322716441466 0 0 0
7 1 5 0 82.75036001922602 -16.794649047201496 6.864742529335058 0 0 0
8 1 5 0 81.81441779933202 -18.358489656428205 6.77005947590557 0 0 0
12 1 5 0 83.54813387002646 -17.898620470141076 9.966389549342876 0 0 0
11 1 5 0 83.17406453180513 -16.39688548369735 9.01351815307147 0 0 0
14 1 5 0 85.42328650347653 -17.239958415261977 7.514716255674036 0 0 0
15 1 5 0 85.76966232479508 -18.191952810838046 9.04124916548092 0 0 0
18 1 5 0 87.705789348838 -15.708703319205455 9.051519028228268 0 0 0
19 1 5 0 86.95875083728201 -16.37247865992217 7.5242713861912955 0 0 0
1 1 3 0 83.73750057680442 -18.404194853183864 5.397724505308208 0 0 0
6 1 3 0 82.84975333934052 -17.920150346555424 6.9381134728171 0 0 0
10 1 3 0 83.63727636343683 -17.43251433521094 8.927437233569906 0 0 0
4 1 6 0 83.50323835499337 -18.140048127184304 4.211311015361333 0 0 0
9 1 4 0 82.93542827815646 -18.149890230808968 8.207797092077437 0 0 0
13 1 3 0 85.28272557420196 -17.241556676315998 8.642118213738899 0 0 0
16 1 4 0 85.94894108451443 -16.334951807151953 9.126789555163928 0 0 0
17 1 3 0 86.74852582608811 -15.720360685294281 8.433011661215824 0 0 0
21 1 5 0 85.67936078801692 -14.17083871400705 7.163065298030892 0 0 0
22 1 5 0 87.49823332068276 -14.045089401489452 7.160436863406096 0 0 0
26 1 5 0 86.37763976031954 -11.398354049494218 7.692459078477602 0 0 0
25 1 5 0 84.94329032547178 -12.532631553017278 7.6865676121872255 0 0 0
29 1 5 0 84.39219838497549 -11.687750079372135 10.200415723246001 0 0 0
20 1 3 0 86.58851016824264 -14.151603763916698 7.844220670677074 0 0 0
28 1 5 0 85.76855577884183 -10.503369828971643 10.057069660479105 0 0 0
31 1 7 0 83.84001934622528 -9.650043903818096 10.068097587797856 0 0 0
23 1 4 0 86.63206158676044 -13.082085269707312 8.50128442806532 0 0 0
24 1 3 0 85.77348775029701 -12.115831259932898 8.334751776045895 0 0 0
27 1 3 0 84.91741669597509 -10.984516085782298 9.481956919602672 0 0 0
30 1 6 0 84.1155605280362 -10.079797392236737 9.250324152343364 0 0 0

Velocities

5 0 0 -0
2 0 -0 0
3 -0 -0 -0
7 0 0 -0
8 0 0 -0
12 0 -0 0
11 -0 -0 -0
14 -0 -0 -0
15 0 0 0
18 -0 0 0
19 0 0 0
1 0 -0 0
6 0 0 -0
10 -0 -0 0
4 -0 0 -0
9 -0 0 -0
13 0 -0 0
16 -0 0 -0
17 -0 0 0
21 -0 -0 0
22 -0 0 0
26 -0 0 -0
25 0 0 -0
29 0 -0 -0
20 -0 -0 0
28 -0 0 0
31 -0 -0 0
23 -0 -0 -0
24 0 0 -0
27 0 0 -0
30 -0 -0 0

Bonds

1 2 1 6
2 5 1 4
3 4 1 2
4 4 1 3
5 4 6 9
6 4 6 7
7 4 6 8
8 2 10 13
9 4 10 11
10 4 10 12
11 6 4 5
12 4 9 10
13 4 13 16
14 4 13 14
15 4 13 15
16 4 16 17
17 2 17 20
18 4 17 18
19 4 17 19
20 4 20 23
21 4 20 21
22 4 20 22
23 4 23 24
24 2 24 27
25 4 24 25
26 4 24 26
27 5 27 30
28 4 27 28
29 4 27 29
30 6 30 31

Angles

1 6 2 1 3
2 7 2 1 4
3 3 2 1 6
4 7 3 1 4
5 3 3 1 6
6 8 4 1 6
7 3 1 6 7
8 3 1 6 8
9 4 1 6 9
10 6 7 6 8
11 5 7 6 9
12 5 8 6 9
13 5 9 10 11
14 5 9 10 12
15 4 9 10 13
16 6 11 10 12
17 3 11 10 13
18 3 12 10 13
19 2 1 4 5
20 9 6 9 10
21 3 10 13 14
22 3 10 13 15
23 4 10 13 16
24 6 14 13 15
25 5 14 13 16
26 5 15 13 16
27 9 13 16 17
28 5 16 17 18
29 5 16 17 19
30 4 16 17 20
31 6 18 17 19
32 3 18 17 20
33 3 19 17 20
34 3 17 20 21
35 3 17 20 22
36 4 17 20 23
37 6 21 20 22
38 5 21 20 23
39 5 22 20 23
40 9 20 23 24
41 5 23 24 25
42 5 23 24 26
43 4 23 24 27
44 6 25 24 26
45 3 25 24 27
46 3 26 24 27
47 3 24 27 28
48 3 24 27 29
49 8 24 27 30
50 6 28 27 29
51 7 28 27 30
52 7 29 27 30
53 2 27 30 31

Dihedrals

1 6 6 1 4 5
2 7 6 1 4 5
3 8 6 1 4 5
4 12 4 1 6 9
5 13 4 1 6 9
6 14 4 1 6 9
7 1 1 6 9 10
8 2 1 6 9 10
9 3 1 6 9 10
10 4 9 10 13 16
11 5 9 10 13 16
12 1 6 9 10 13
13 2 6 9 10 13
14 3 6 9 10 13
15 1 10 13 16 17
16 2 10 13 16 17
17 3 10 13 16 17
18 1 13 16 17 20
19 2 13 16 17 20
20 3 13 16 17 20
21 4 16 17 20 23
22 5 16 17 20 23
23 1 17 20 23 24
24 2 17 20 23 24
25 3 17 20 23 24
26 1 20 23 24 27
27 2 20 23 24 27
28 3 20 23 24 27
29 12 23 24 27 30
30 13 23 24 27 30
31 14 23 24 27 30
32 6 24 27 30 31
33 7 24 27 30 31
34 8 24 27 30 31
