LAMMPS data file via write_data, version 29 Sep 2021, timestep = 10120

31 atoms
7 atom types
30 bonds
6 bond types
53 angles
9 angle types
34 dihedrals
14 dihedral types

6.954828148863853 13.830615223720399 xlo xhi
3.329824194945695 12.079248505436329 ylo yhi
79.00183675992456 85.4115531169159 zlo zhi

Masses

1 15.9994
2 1.008
3 12.011
4 15.9994
5 1.008
6 15.9994
7 1.008

Pair Coeffs # lj/cut

1 0 0
2 0 0
3 0 0
4 0 0
5 0.05 1.6036
6 0 0
7 0.05 1.6036

Bond Coeffs # harmonic

1 0 0.9572
2 222.35 1.53
3 308.79 1.1111
4 359.76 1.1415
5 427.715 1.142
6 544.635 0.96

Angle Coeffs # charmm

1 0 104.52 0 0
2 50 109 0 0
3 26.5 110.1 22.53 2.179
4 45 111.5 0 0
5 13.0258 109.4 0 0
6 35.5 109 5.4 1.802
7 55 108.89 0 0
8 75.7 110.1 0 0
9 95 109.7 0 0

Dihedral Coeffs # charmm

1 0.57 1 0 0
2 0.29 2 0 0
3 0.43 3 0 0
4 0.59 1 180 0
5 1.16 2 0 0
6 0.12 1 0 0
7 0.42 2 0 0
8 0.29 3 0 0
9 2.87 1 180 0
10 0.03 2 0 0
11 0.23 3 0 0
12 1.36 1 180 0
13 0.16 2 0 0
14 1.01 3 0 0

Atoms # full

18 1 5 0 11.157317097088626 7.566095878128611 81.89392260003936 0 0 0
26 1 5 0 13.4336717177101 5.409463319426497 79.21247723446321 0 0 0
25 1 5 0 13.827615223720398 6.630420392432712 80.51089617725815 0 0 0
28 1 5 0 11.996347526024827 3.9955622107209345 80.8649476085343 0 0 0
29 1 5 0 12.265320229313858 5.212605799898774 82.1955894062121 0 0 0
31 1 7 0 13.199490042300692 3.332824194945695 82.45485925764933 0 0 0
24 1 3 0 13.000070172439138 5.974449317868619 80.10010567985846 0 0 0
23 1 4 0 12.201829552541408 6.761641429767706 79.48049832664434 0 0 0
27 1 3 0 12.77224230545822 4.679525505771842 81.33169926896393 0 0 0
30 1 6 0 13.612008189008701 3.9437727274796934 81.83404235908996 0 0 0
2 1 5 0 9.595466845530332 10.201156312799048 84.95629561629815 0 0 0
3 1 5 0 9.998146756006548 11.26116448690923 83.53508001842019 0 0 0
7 1 5 0 7.351841173684092 11.777744215189573 83.15986419042112 0 0 0
8 1 5 0 6.957828148863853 10.722372999474658 84.58693542679829 0 0 0
12 1 5 0 7.230776278941452 8.336494619704595 81.94411667806855 0 0 0
11 1 5 0 7.497103696366508 9.886717970725966 81.04305086295375 0 0 0
14 1 5 0 9.543703587932317 8.046498483750371 82.53234150048097 0 0 0
15 1 5 0 9.723546068096566 9.778776678779986 83.06917023528145 0 0 0
6 1 3 0 7.626224109122569 10.807544179572195 83.67438416272107 0 0 0
10 1 3 0 7.697102427836911 9.372609469835528 82.03589433435933 0 0 0
13 1 3 0 9.445254829901518 9.121758009100777 82.18344135930268 0 0 0
4 1 6 0 9.811517234349605 12.076248505436329 85.2386333128326 0 0 0
1 1 3 0 9.34990529191556 11.18908262660756 84.46092737809141 0 0 0
9 1 4 0 7.017903119357418 9.92229598957121 82.91198632677978 0 0 0
5 1 7 0 10.752465306380971 11.943518357299885 85.4085531169159 0 0 0
19 1 5 0 12.242169173909737 9.03228767726319 81.80226887760045 0 0 0
21 1 5 0 11.409242821915074 8.396349135984721 79.00483675992456 0 0 0
22 1 5 0 13.072220362216449 8.462265945894613 79.73271385613445 0 0 0
17 1 3 0 11.376759984485671 8.498726928864457 81.28362438330007 0 0 0
20 1 3 0 12.060700863475727 7.949697482497206 79.82850131819549 0 0 0
16 1 4 0 10.42894097857231 9.319461872837088 81.3947435769872 0 0 0

Velocities

18 0 -0 0
26 -0 -0 -0
25 0 -0 -0
28 -0 -0 0
29 -0 -0 0
31 0 0 0
24 0 -0 0
23 -0 0 0
27 0 0 -0
30 -0 -0 -0
2 -0 -0 0
3 -0 -0 0
7 0 -0 0
8 0 -0 -0
12 0 0 -0
11 0 -0 0
14 0 -0 -0
15 -0 -0 0
6 0 0 0
10 -0 0 0
13 0 -0 -0
4 0 0 -0
1 0 -0 0
9 0 -0 -0
5 -0 -0 0
19 0 0 -0
21 -0 0 0
22 -0 0 -0
17 -0 -0 0
20 0 0 -0
16 -0 0 0

Bonds

1 2 24 27
2 4 24 25
3 4 24 26
4 4 23 24
5 5 27 30
6 4 27 28
7 4 27 29
8 6 30 31
9 4 6 9
10 4 6 7
11 4 6 8
12 2 10 13
13 4 10 11
14 4 10 12
15 4 13 16
16 4 13 14
17 4 13 15
18 6 4 5
19 2 1 6
20 5 1 4
21 4 1 2
22 4 1 3
23 4 9 10
24 2 17 20
25 4 17 18
26 4 17 19
27 4 20 23
28 4 20 21
29 4 20 22
30 4 16 17

Angles

1 5 23 24 25
2 5 23 24 26
3 4 23 24 27
4 6 25 24 26
5 3 25 24 27
6 3 26 24 27
7 9 20 23 24
8 3 24 27 28
9 3 24 27 29
10 8 24 27 30
11 6 28 27 29
12 7 28 27 30
13 7 29 27 30
14 2 27 30 31
15 3 1 6 7
16 3 1 6 8
17 4 1 6 9
18 6 7 6 8
19 5 7 6 9
20 5 8 6 9
21 5 9 10 11
22 5 9 10 12
23 4 9 10 13
24 6 11 10 12
25 3 11 10 13
26 3 12 10 13
27 3 10 13 14
28 3 10 13 15
29 4 10 13 16
30 6 14 13 15
31 5 14 13 16
32 5 15 13 16
33 2 1 4 5
34 6 2 1 3
35 7 2 1 4
36 3 2 1 6
37 7 3 1 4
38 3 3 1 6
39 8 4 1 6
40 9 6 9 10
41 5 16 17 18
42 5 16 17 19
43 4 16 17 20
44 6 18 17 19
45 3 18 17 20
46 3 19 17 20
47 3 17 20 21
48 3 17 20 22
49 4 17 20 23
50 6 21 20 22
51 5 21 20 23
52 5 22 20 23
53 9 13 16 17

Dihedrals

1 12 23 24 27 30
2 13 23 24 27 30
3 14 23 24 27 30
4 1 20 23 24 27
5 2 20 23 24 27
6 3 20 23 24 27
7 6 24 27 30 31
8 7 24 27 30 31
9 8 24 27 30 31
10 1 1 6 9 10
11 2 1 6 9 10
12 3 1 6 9 10
13 4 9 10 13 16
14 5 9 10 13 16
15 1 10 13 16 17
16 2 10 13 16 17
17 3 10 13 16 17
18 6 6 1 4 5
19 7 6 1 4 5
20 8 6 1 4 5
21 12 4 1 6 9
22 13 4 1 6 9
23 14 4 1 6 9
24 1 6 9 10 13
25 2 6 9 10 13
26 3 6 9 10 13
27 4 16 17 20 23
28 5 16 17 20 23
29 1 17 20 23 24
30 2 17 20 23 24
31 3 17 20 23 24
32 1 13 16 17 20
33 2 13 16 17 20
34 3 13 16 17 20
