LAMMPS data file via write_data, version 29 Sep 2021, timestep = 1

31 atoms
7 atom types
30 bonds
6 bond types
53 angles
9 angle types
34 dihedrals
14 dihedral types

49.86609953955006 57.834836124715146 xlo xhi
22.506295949126105 29.89068283091262 ylo yhi
23.71526356352337 30.207861902338017 zlo zhi

Masses

1 15.9994
2 1.008
3 12.011
4 15.9994
5 1.008
6 15.9994
7 1.008

Pair Coeffs # lj/cut

1 0 0
2 0 0
3 0 0
4 0 0
5 0.05 1.6036
6 0 0
7 0.05 1.6036

Bond Coeffs # harmonic

1 0 0.9572
2 222.35 1.53
3 308.79 1.1111
4 359.76 1.1415
5 427.715 1.142
6 544.635 0.96

Angle Coeffs # charmm

1 0 104.52 0 0
2 50 109 0 0
3 26.5 110.1 22.53 2.179
4 45 111.5 0 0
5 13.0258 109.4 0 0
6 35.5 109 5.4 1.802
7 55 108.89 0 0
8 75.7 110.1 0 0
9 95 109.7 0 0

Dihedral Coeffs # charmm

1 0.57 1 0 0
2 0.29 2 0 0
3 0.43 3 0 0
4 0.59 1 180 0
5 1.16 2 0 0
6 0.12 1 0 0
7 0.42 2 0 0
8 0.29 3 0 0
9 2.87 1 180 0
10 0.03 2 0 0
11 0.23 3 0 0
12 1.36 1 180 0
13 0.16 2 0 0
14 1.01 3 0 0

Atoms # full

11 1 5 0 52.949119199864434 23.16797591237929 24.71016197368362 0 0 0
12 1 5 0 54.558678481684765 22.50703484303468 25.234349112538666 0 0 0
10 1 3 0 53.90591657468213 23.439553919351738 25.271902432016528 0 0 0
9 1 4 0 54.43047893595297 24.332739103703805 24.57952497629213 0 0 0
6 1 3 0 55.66061934839024 24.68967431806415 24.732845666460026 0 0 0
7 1 5 0 56.071180659101444 24.3889675296 23.71591329488697 0 0 0
8 1 5 0 56.10114513121014 23.981049904636237 25.49810389255877 0 0 0
4 1 6 0 57.69417619885005 26.527427854035857 25.1456666758676 0 0 0
1 1 3 0 56.49481817753346 26.27715045407423 25.040867038834968 0 0 0
3 1 5 0 56.110920495322 26.943083218259723 24.20654615636518 0 0 0
5 1 7 0 57.834038810809375 27.468036163609465 25.30319131212882 0 0 0
21 1 5 0 49.866896853455835 24.890656962517024 27.854879826202325 0 0 0
13 1 3 0 53.435712817003186 23.627764616801322 26.86375325698909 0 0 0
14 1 5 0 53.82796212376793 22.699896517875967 27.397574776314645 0 0 0
16 1 4 0 52.26491118195954 23.723898827684415 27.222326274314767 0 0 0
15 1 5 0 54.01688979299251 24.51896961630868 27.26385716198788 0 0 0
26 1 5 0 50.63865704026736 27.003534702581554 27.836221173089122 0 0 0
2 1 5 0 56.0161902010412 26.644598016605602 26.001488338651132 0 0 0
22 1 5 0 50.033961246653874 24.078928237567503 29.466399602483115 0 0 0
20 1 3 0 50.52178428081404 24.856825590392287 28.784609118684457 0 0 0
18 1 5 0 52.79151328534781 24.951337627215235 28.599658722258877 0 0 0
19 1 5 0 52.14209610586922 23.296326536608753 29.04522027730898 0 0 0
17 1 3 0 52.00049145376993 24.178197092693864 28.338058977695475 0 0 0
23 1 4 0 50.43506251816425 25.923413615661747 29.440390427333874 0 0 0
24 1 3 0 50.79854429509898 27.09860476109671 28.951412864419456 0 0 0
25 1 5 0 49.92275292888914 27.6914761409297 29.366990392169217 0 0 0
28 1 5 0 53.10381873003532 27.761309419424915 28.813527337148596 0 0 0
29 1 5 0 52.24309535911209 28.550057054555808 30.207212170974415 0 0 0
27 1 3 0 52.19378870601005 28.377340767429995 29.08855270333282 0 0 0
31 1 7 0 53.219205663695476 29.889943937004045 28.87167522945755 0 0 0
30 1 6 0 52.38734972806541 29.504652525818717 28.570823438201614 0 0 0

Velocities

11 -0 0 -0
12 -0 0 -0
10 -0 0 0
9 0 -0 -0
6 0 -0 0
7 0 -0 0
8 -0 0 0
4 -0 0 0
1 0 -0 -0
3 0 0 0
5 0 0 -0
21 -0 -0 0
13 -0 0 -0
14 0 0 -0
16 -0 -0 0
15 0 0 -0
26 -0 0 -0
2 -0 0 -0
22 0 0 0
20 -0 -0 0
18 -0 0 -0
19 0 0 0
17 -0 -0 -0
23 -0 0 -0
24 0 -0 -0
25 0 -0 0
28 0 0 0
29 -0 0 -0
27 0 -0 -0
31 -0 0 0
30 0 -0 0

Bonds

1 2 10 13
2 4 10 11
3 4 10 12
4 4 9 10
5 4 6 9
6 4 6 7
7 4 6 8
8 6 4 5
9 2 1 6
10 5 1 4
11 4 1 2
12 4 1 3
13 4 13 16
14 4 13 14
15 4 13 15
16 4 16 17
17 4 20 23
18 4 20 21
19 4 20 22
20 2 17 20
21 4 17 18
22 4 17 19
23 4 23 24
24 2 24 27
25 4 24 25
26 4 24 26
27 5 27 30
28 4 27 28
29 4 27 29
30 6 30 31

Angles

1 5 9 10 11
2 5 9 10 12
3 4 9 10 13
4 6 11 10 12
5 3 11 10 13
6 3 12 10 13
7 9 6 9 10
8 3 1 6 7
9 3 1 6 8
10 4 1 6 9
11 6 7 6 8
12 5 7 6 9
13 5 8 6 9
14 2 1 4 5
15 6 2 1 3
16 7 2 1 4
17 3 2 1 6
18 7 3 1 4
19 3 3 1 6
20 8 4 1 6
21 3 10 13 14
22 3 10 13 15
23 4 10 13 16
24 6 14 13 15
25 5 14 13 16
26 5 15 13 16
27 9 13 16 17
28 3 17 20 21
29 3 17 20 22
30 4 17 20 23
31 6 21 20 22
32 5 21 20 23
33 5 22 20 23
34 5 16 17 18
35 5 16 17 19
36 4 16 17 20
37 6 18 17 19
38 3 18 17 20
39 3 19 17 20
40 9 20 23 24
41 5 23 24 25
42 5 23 24 26
43 4 23 24 27
44 6 25 24 26
45 3 25 24 27
46 3 26 24 27
47 3 24 27 28
48 3 24 27 29
49 8 24 27 30
50 6 28 27 29
51 7 28 27 30
52 7 29 27 30
53 2 27 30 31

Dihedrals

1 4 9 10 13 16
2 5 9 10 13 16
3 1 6 9 10 13
4 2 6 9 10 13
5 3 6 9 10 13
6 1 1 6 9 10
7 2 1 6 9 10
8 3 1 6 9 10
9 6 6 1 4 5
10 7 6 1 4 5
11 8 6 1 4 5
12 12 4 1 6 9
13 13 4 1 6 9
14 14 4 1 6 9
15 1 10 13 16 17
16 2 10 13 16 17
17 3 10 13 16 17
18 1 13 16 17 20
19 2 13 16 17 20
20 3 13 16 17 20
21 1 17 20 23 24
22 2 17 20 23 24
23 3 17 20 23 24
24 4 16 17 20 23
25 5 16 17 20 23
26 1 20 23 24 27
27 2 20 23 24 27
28 3 20 23 24 27
29 12 23 24 27 30
30 13 23 24 27 30
31 14 23 24 27 30
32 6 24 27 30 31
33 7 24 27 30 31
34 8 24 27 30 31
