LAMMPS data file via write_data, version 28 Mar 2023, timestep = 100

31 atoms
7 atom types
30 bonds
6 bond types
53 angles
9 angle types
34 dihedrals
14 dihedral types

-21.637051008892918 -15.576165427385934 xlo xhi
-14.283261234427323 -4.9932944773567725 ylo yhi
18.293315316135256 23.808077489923075 zlo zhi

Masses

1 15.9994
2 1.008
3 12.011
4 15.9994
5 1.008
6 15.9994
7 1.008

Pair Coeffs # lj/cut

1 0 0
2 0 0
3 0 0
4 0 0
5 0.05 1.6036
6 0 0
7 0.05 1.6036

Bond Coeffs # harmonic

1 0 0.9572
2 222.35 1.53
3 308.79 1.1111
4 359.76 1.1415
5 427.715 1.142
6 544.635 0.96

Angle Coeffs # charmm

1 0 104.52 0 0
2 50 109 0 0
3 26.5 110.1 22.53 2.179
4 45 111.5 0 0
5 13.0258 109.4 0 0
6 35.5 109 5.4 1.802
7 55 108.89 0 0
8 75.7 110.1 0 0
9 95 109.7 0 0

Dihedral Coeffs # charmm

1 0.57 1 0 0
2 0.29 2 0 0
3 0.43 3 0 0
4 0.59 1 180 0
5 1.16 2 0 0
6 0.12 1 0 0
7 0.42 2 0 0
8 0.29 3 0 0
9 2.87 1 180 0
10 0.03 2 0 0
11 0.23 3 0 0
12 1.36 1 180 0
13 0.16 2 0 0
14 1.01 3 0 0

Atoms # full

5 1 7 0 -20.09707885449599 -14.282305843342419 20.916572649815922 0 0 0
4 1 6 0 -19.47035542262885 -14.238241380434156 20.184853196315373 0 0 0
2 1 5 0 -18.132519987750758 -13.550721963547149 21.34590665581769 0 0 0
1 1 3 0 -18.624069469928802 -13.31225778207754 20.3548357672721 0 0 0
7 1 5 0 -16.400160556127762 -13.503644889938922 19.404312982284335 0 0 0
8 1 5 0 -17.506621137009777 -12.582295234733067 18.293870363994117 0 0 0
3 1 5 0 -19.234517748821062 -12.372449491413427 20.513938561588 0 0 0
6 1 3 0 -17.119652866912386 -12.627214391327685 19.35613560670724 0 0 0
9 1 4 0 -16.203529343778726 -11.672036674277608 19.388077408361355 0 0 0
16 1 4 0 -18.95711688231147 -9.423650869916111 20.675668663706926 0 0 0
13 1 3 0 -17.699897207063994 -9.730123317748095 20.51007556891772 0 0 0
11 1 5 0 -16.859813948114578 -10.14913678244928 18.33358353919868 0 0 0
10 1 3 0 -16.569783080840153 -10.479299101540532 19.38021108911281 0 0 0
12 1 5 0 -15.576736986017217 -9.952628889110919 19.588054856751864 0 0 0
14 1 5 0 -17.2162239765028 -8.71348436726039 20.667088068549603 0 0 0
28 1 5 0 -19.330267792418926 -6.853723286591489 20.19436584399467 0 0 0
30 1 6 0 -18.928498735782412 -4.994249868441678 20.013362096529253 0 0 0
31 1 7 0 -18.15094031405015 -5.207234769789023 19.48174057587838 0 0 0
27 1 3 0 -19.211319865176232 -5.93080391526171 20.839173448913208 0 0 0
15 1 5 0 -17.51923134886025 -10.346641025082889 21.44705447442719 0 0 0
18 1 5 0 -18.593113334100547 -9.21949936534856 22.516169838420996 0 0 0
22 1 5 0 -21.636479450261636 -8.87380623148623 22.37853609803125 0 0 0
20 1 3 0 -20.71280129489217 -8.367149588849243 22.799606862425513 0 0 0
21 1 5 0 -20.51953759908372 -8.863102824295835 23.807522442064215 0 0 0
17 1 3 0 -19.31102951508759 -8.77086016341134 21.76003284183096 0 0 0
19 1 5 0 -18.927294047627523 -7.732693764724248 21.500445762297606 0 0 0
25 1 5 0 -21.54357752711462 -6.048973682022812 21.68503767086108 0 0 0
23 1 4 0 -20.969053328626643 -7.195939642123356 23.099519799880447 0 0 0
24 1 3 0 -20.574248651379353 -6.281113571720474 22.219702494544883 0 0 0
26 1 5 0 -20.39143497030682 -5.433020109092146 22.94874142203963 0 0 0
29 1 5 0 -18.266020940695903 -6.075837672398905 21.444372510585634 0 0 0

Velocities

5 0 0 0
4 -0 -0 -0
2 0 0 -0
1 0 0 0
7 -0 0 -0
8 -0 -0 -0
3 0 0 0
6 0 -0 -0
9 0 0 0
16 0 -0 0
13 -0 -0 0
11 -0 -0 0
10 0 0 0
12 -0 -0 -0
14 -0 0 0
28 -0 0 0
30 -0 0 0
31 -0 0 0
27 0 -0 -0
15 -0 -0 -0
18 0 -0 0
22 0 -0 -0
20 0 0 -0
21 0 0 -0
17 0 0 -0
19 0 0 0
25 -0 -0 0
23 -0 -0 -0
24 -0 0 0
26 -0 0 0
29 0 0 -0

Bonds

1 6 4 5
2 2 1 6
3 5 1 4
4 4 1 2
5 4 1 3
6 4 6 9
7 4 6 7
8 4 6 8
9 4 9 10
10 4 16 17
11 4 13 16
12 4 13 14
13 4 13 15
14 2 10 13
15 4 10 11
16 4 10 12
17 6 30 31
18 5 27 30
19 4 27 28
20 4 27 29
21 4 20 23
22 4 20 21
23 4 20 22
24 2 17 20
25 4 17 18
26 4 17 19
27 4 23 24
28 2 24 27
29 4 24 25
30 4 24 26

Angles

1 2 1 4 5
2 6 2 1 3
3 7 2 1 4
4 3 2 1 6
5 7 3 1 4
6 3 3 1 6
7 8 4 1 6
8 3 1 6 7
9 3 1 6 8
10 4 1 6 9
11 6 7 6 8
12 5 7 6 9
13 5 8 6 9
14 9 6 9 10
15 9 13 16 17
16 3 10 13 14
17 3 10 13 15
18 4 10 13 16
19 6 14 13 15
20 5 14 13 16
21 5 15 13 16
22 5 9 10 11
23 5 9 10 12
24 4 9 10 13
25 6 11 10 12
26 3 11 10 13
27 3 12 10 13
28 2 27 30 31
29 3 24 27 28
30 3 24 27 29
31 8 24 27 30
32 6 28 27 29
33 7 28 27 30
34 7 29 27 30
35 3 17 20 21
36 3 17 20 22
37 4 17 20 23
38 6 21 20 22
39 5 21 20 23
40 5 22 20 23
41 5 16 17 18
42 5 16 17 19
43 4 16 17 20
44 6 18 17 19
45 3 18 17 20
46 3 19 17 20
47 9 20 23 24
48 5 23 24 25
49 5 23 24 26
50 4 23 24 27
51 6 25 24 26
52 3 25 24 27
53 3 26 24 27

Dihedrals

1 6 6 1 4 5
2 7 6 1 4 5
3 8 6 1 4 5
4 12 4 1 6 9
5 13 4 1 6 9
6 14 4 1 6 9
7 1 1 6 9 10
8 2 1 6 9 10
9 3 1 6 9 10
10 1 6 9 10 13
11 2 6 9 10 13
12 3 6 9 10 13
13 1 13 16 17 20
14 2 13 16 17 20
15 3 13 16 17 20
16 1 10 13 16 17
17 2 10 13 16 17
18 3 10 13 16 17
19 4 9 10 13 16
20 5 9 10 13 16
21 6 24 27 30 31
22 7 24 27 30 31
23 8 24 27 30 31
24 1 17 20 23 24
25 2 17 20 23 24
26 3 17 20 23 24
27 4 16 17 20 23
28 5 16 17 20 23
29 1 20 23 24 27
30 2 20 23 24 27
31 3 20 23 24 27
32 12 23 24 27 30
33 13 23 24 27 30
34 14 23 24 27 30
