LAMMPS data file via write_data, version 29 Sep 2021, timestep = 10120

31 atoms
7 atom types
30 bonds
6 bond types
53 angles
9 angle types
34 dihedrals
14 dihedral types

-12.119887754032806 -6.112014922627599 xlo xhi
66.59525284877846 72.84361629286744 ylo yhi
-32.50224408393682 -20.373266016928262 zlo zhi

Masses

1 15.9994
2 1.008
3 12.011
4 15.9994
5 1.008
6 15.9994
7 1.008

Pair Coeffs # lj/cut

1 0 0
2 0 0
3 0 0
4 0 0
5 0.05 1.6036
6 0 0
7 0.05 1.6036

Bond Coeffs # harmonic

1 0 0.9572
2 222.35 1.53
3 308.79 1.1111
4 359.76 1.1415
5 427.715 1.142
6 544.635 0.96

Angle Coeffs # charmm

1 0 104.52 0 0
2 50 109 0 0
3 26.5 110.1 22.53 2.179
4 45 111.5 0 0
5 13.0258 109.4 0 0
6 35.5 109 5.4 1.802
7 55 108.89 0 0
8 75.7 110.1 0 0
9 95 109.7 0 0

Dihedral Coeffs # charmm

1 0.57 1 0 0
2 0.29 2 0 0
3 0.43 3 0 0
4 0.59 1 180 0
5 1.16 2 0 0
6 0.12 1 0 0
7 0.42 2 0 0
8 0.29 3 0 0
9 2.87 1 180 0
10 0.03 2 0 0
11 0.23 3 0 0
12 1.36 1 180 0
13 0.16 2 0 0
14 1.01 3 0 0

Atoms # full

18 1 5 0 -10.285203249164853 69.48114537230086 -28.47370465259854 0 0 0
26 1 5 0 -11.874098580659233 72.84061629286744 -29.501309410387176 0 0 0
25 1 5 0 -12.055227918714978 71.03814098530687 -29.28745256515552 0 0 0
28 1 5 0 -9.576476149251263 72.5495223376099 -30.73928117574483 0 0 0
29 1 5 0 -9.623138159391157 70.74868043821172 -30.48165984276676 0 0 0
31 1 7 0 -9.770515857002252 71.38643776015017 -32.49924408393682 0 0 0
24 1 3 0 -11.307871579818139 71.88740745408673 -29.250321532054738 0 0 0
27 1 3 0 -10.25920572780822 71.64467946361357 -30.76071065084316 0 0 0
30 1 6 0 -10.56041212300105 71.48169399737981 -31.954216711892467 0 0 0
11 1 5 0 -6.4624191606899135 68.22295728302434 -25.769424793788904 0 0 0
12 1 5 0 -6.820019071853997 70.00598440032806 -25.819679688527703 0 0 0
14 1 5 0 -8.293305572755482 67.85019019242162 -27.081296947090593 0 0 0
15 1 5 0 -9.407501960460209 68.41160002888437 -25.736775116951424 0 0 0
19 1 5 0 -10.669755974133437 68.96594875853889 -26.762404442727 0 0 0
21 1 5 0 -10.66698967047143 71.65841482419599 -26.206432513346297 0 0 0
22 1 5 0 -12.116887754032806 70.85172906744455 -26.93235209529382 0 0 0
10 1 3 0 -7.237285911370512 69.0011991850716 -25.468650416572 0 0 0
13 1 3 0 -8.561447239914436 68.74103339091934 -26.420782406699487 0 0 0
17 1 3 0 -10.142815494100201 69.76276290565819 -27.37939404428782 0 0 0
20 1 3 0 -11.05174288988347 71.18113417771585 -27.168902252470314 0 0 0
16 1 4 0 -8.940571339704674 69.60478911423563 -27.18907086830994 0 0 0
23 1 4 0 -11.133165857126238 72.11259675375 -27.98405126042124 0 0 0
5 1 7 0 -8.441159666022308 66.62484117173206 -20.376266016928263 0 0 0
2 1 5 0 -7.828597945256911 68.487910583726 -21.181154858687876 0 0 0
3 1 5 0 -9.117855479601856 67.60594337325017 -22.117237078639263 0 0 0
7 1 5 0 -6.115014922627599 68.16732463031232 -23.12267486790178 0 0 0
8 1 5 0 -7.30600203136208 67.16491280670432 -24.085313106806268 0 0 0
6 1 3 0 -7.205973820009103 68.08121000357782 -23.42813781399188 0 0 0
4 1 6 0 -7.853472692425108 66.59825284877846 -21.140177543922025 0 0 0
1 1 3 0 -8.014992669463934 67.59363359061318 -21.853189320296433 0 0 0
9 1 4 0 -7.2973803222863145 69.10308143845477 -24.22613649561633 0 0 0

Velocities

18 -0 0 -0
26 0 -0 0
25 -0 0 0
28 -0 0 -0
29 0 -0 -0
31 -0 -0 -0
24 0 -0 0
27 0 -0 -0
30 0 0 0
11 -0 -0 0
12 0 -0 -0
14 -0 -0 0
15 -0 0 -0
19 -0 -0 -0
21 -0 0 0
22 0 -0 -0
10 0 0 -0
13 0 0 -0
17 0 -0 -0
20 0 0 0
16 -0 0 0
23 -0 -0 -0
5 0 -0 0
2 0 -0 0
3 0 0 0
7 0 -0 0
8 -0 0 -0
6 0 0 -0
4 -0 0 -0
1 0 -0 -0
9 -0 -0 0

Bonds

1 2 24 27
2 4 24 25
3 4 24 26
4 5 27 30
5 4 27 28
6 4 27 29
7 6 30 31
8 2 10 13
9 4 10 11
10 4 10 12
11 4 13 16
12 4 13 14
13 4 13 15
14 2 17 20
15 4 17 18
16 4 17 19
17 4 20 23
18 4 20 21
19 4 20 22
20 4 16 17
21 4 23 24
22 4 6 9
23 4 6 7
24 4 6 8
25 6 4 5
26 2 1 6
27 5 1 4
28 4 1 2
29 4 1 3
30 4 9 10

Angles

1 5 23 24 25
2 5 23 24 26
3 4 23 24 27
4 6 25 24 26
5 3 25 24 27
6 3 26 24 27
7 3 24 27 28
8 3 24 27 29
9 8 24 27 30
10 6 28 27 29
11 7 28 27 30
12 7 29 27 30
13 2 27 30 31
14 5 9 10 11
15 5 9 10 12
16 4 9 10 13
17 6 11 10 12
18 3 11 10 13
19 3 12 10 13
20 3 10 13 14
21 3 10 13 15
22 4 10 13 16
23 6 14 13 15
24 5 14 13 16
25 5 15 13 16
26 5 16 17 18
27 5 16 17 19
28 4 16 17 20
29 6 18 17 19
30 3 18 17 20
31 3 19 17 20
32 3 17 20 21
33 3 17 20 22
34 4 17 20 23
35 6 21 20 22
36 5 21 20 23
37 5 22 20 23
38 9 13 16 17
39 9 20 23 24
40 3 1 6 7
41 3 1 6 8
42 4 1 6 9
43 6 7 6 8
44 5 7 6 9
45 5 8 6 9
46 2 1 4 5
47 6 2 1 3
48 7 2 1 4
49 3 2 1 6
50 7 3 1 4
51 3 3 1 6
52 8 4 1 6
53 9 6 9 10

Dihedrals

1 12 23 24 27 30
2 13 23 24 27 30
3 14 23 24 27 30
4 6 24 27 30 31
5 7 24 27 30 31
6 8 24 27 30 31
7 4 9 10 13 16
8 5 9 10 13 16
9 1 10 13 16 17
10 2 10 13 16 17
11 3 10 13 16 17
12 4 16 17 20 23
13 5 16 17 20 23
14 1 17 20 23 24
15 2 17 20 23 24
16 3 17 20 23 24
17 1 13 16 17 20
18 2 13 16 17 20
19 3 13 16 17 20
20 1 20 23 24 27
21 2 20 23 24 27
22 3 20 23 24 27
23 1 1 6 9 10
24 2 1 6 9 10
25 3 1 6 9 10
26 6 6 1 4 5
27 7 6 1 4 5
28 8 6 1 4 5
29 12 4 1 6 9
30 13 4 1 6 9
31 14 4 1 6 9
32 1 6 9 10 13
33 2 6 9 10 13
34 3 6 9 10 13
