LAMMPS data file via write_data, version 29 Sep 2021, timestep = 10120

31 atoms
7 atom types
30 bonds
6 bond types
53 angles
9 angle types
34 dihedrals
14 dihedral types

54.37364994934175 63.34978017414858 xlo xhi
7.2363275630558865 18.275129156621176 ylo yhi
40.76100569458481 45.932181312165575 zlo zhi

Masses

1 15.9994
2 1.008
3 12.011
4 15.9994
5 1.008
6 15.9994
7 1.008

Pair Coeffs # lj/cut

1 0 0
2 0 0
3 0 0
4 0 0
5 0.05 1.6036
6 0 0
7 0.05 1.6036

Bond Coeffs # harmonic

1 0 0.9572
2 222.35 1.53
3 308.79 1.1111
4 359.76 1.1415
5 427.715 1.142
6 544.635 0.96

Angle Coeffs # charmm

1 0 104.52 0 0
2 50 109 0 0
3 26.5 110.1 22.53 2.179
4 45 111.5 0 0
5 13.0258 109.4 0 0
6 35.5 109 5.4 1.802
7 55 108.89 0 0
8 75.7 110.1 0 0
9 95 109.7 0 0

Dihedral Coeffs # charmm

1 0.57 1 0 0
2 0.29 2 0 0
3 0.43 3 0 0
4 0.59 1 180 0
5 1.16 2 0 0
6 0.12 1 0 0
7 0.42 2 0 0
8 0.29 3 0 0
9 2.87 1 180 0
10 0.03 2 0 0
11 0.23 3 0 0
12 1.36 1 180 0
13 0.16 2 0 0
14 1.01 3 0 0

Atoms # full

5 1 7 0 54.37664994934175 8.146960554847627 40.76400569458481 0 0 0
2 1 5 0 56.251443300229816 8.879435576341423 41.41861622581933 0 0 0
3 1 5 0 55.786882760084765 7.239327563055887 42.057601823899994 0 0 0
7 1 5 0 55.93164608644457 9.87313528222078 43.93011008010838 0 0 0
8 1 5 0 55.612225328681106 8.15906722777748 44.48860701248799 0 0 0
12 1 5 0 57.0602181937287 10.198577848980166 45.62802494909823 0 0 0
11 1 5 0 58.43232593385522 9.03894079527535 45.929181312165575 0 0 0
6 1 3 0 56.2432449910868 8.794371179902397 43.78940253494691 0 0 0
10 1 3 0 57.87186424741831 9.598430317956748 45.10370186613465 0 0 0
1 1 3 0 55.554884723998995 8.346372458935686 42.137173408215375 0 0 0
4 1 6 0 54.41829698055208 8.484331112343423 41.6663760234568 0 0 0
9 1 4 0 57.39588661337112 8.689026907884436 44.38782681196692 0 0 0
15 1 5 0 58.938137963486255 10.59609825466204 43.38284397786882 0 0 0
14 1 5 0 59.99536214926525 10.312198072230052 44.8591646975618 0 0 0
13 1 3 0 58.97379579716362 10.679418703169784 44.51682044810518 0 0 0
21 1 5 0 58.773283386677846 14.246266844300928 44.61361834206056 0 0 0
18 1 5 0 60.171080479621814 11.953278109248664 43.273251737039445 0 0 0
19 1 5 0 60.80824843736248 12.269777817336792 44.974253977251976 0 0 0
22 1 5 0 59.56593345584328 14.124158037824248 42.95535128442149 0 0 0
17 1 3 0 59.91351675289106 12.418117500264435 44.281870842722824 0 0 0
20 1 3 0 59.73409756811098 13.951959548119891 44.070004470776865 0 0 0
16 1 4 0 58.98663820235972 11.85568755476831 44.747516594890406 0 0 0
23 1 4 0 60.66186676236248 14.59700260832167 44.49529169446068 0 0 0
26 1 5 0 61.04999068108959 15.433219010123498 42.843272032983485 0 0 0
25 1 5 0 60.036818167298236 16.326935284667485 44.086312249598386 0 0 0
29 1 5 0 62.23914529829465 17.055307630274203 45.351782278518634 0 0 0
28 1 5 0 63.24574378020463 16.169457179666797 44.11494991480008 0 0 0
31 1 7 0 63.34678017414858 18.272129156621176 44.04826459518259 0 0 0
24 1 3 0 60.967010344553394 15.69245737953796 43.944756870541475 0 0 0
27 1 3 0 62.31889983940307 16.811635498987872 44.24603719261503 0 0 0
30 1 6 0 62.554131512207206 17.864350676099246 43.68249089119134 0 0 0

Velocities

5 -0 -0 0
2 -0 0 0
3 0 0 -0
7 -0 -0 0
8 0 -0 -0
12 -0 0 0
11 -0 -0 -0
6 0 -0 0
10 -0 0 -0
1 -0 -0 0
4 0 0 -0
9 0 0 -0
15 -0 0 -0
14 -0 -0 -0
13 -0 0 -0
21 0 0 0
18 -0 -0 -0
19 0 -0 -0
22 -0 0 -0
17 0 -0 -0
20 -0 -0 -0
16 0 -0 0
23 -0 0 0
26 0 -0 0
25 0 0 -0
29 -0 0 0
28 -0 0 0
31 0 -0 -0
24 0 -0 0
27 -0 0 0
30 0 -0 -0

Bonds

1 4 6 9
2 4 6 7
3 4 6 8
4 2 10 13
5 4 10 11
6 4 10 12
7 2 1 6
8 5 1 4
9 4 1 2
10 4 1 3
11 6 4 5
12 4 9 10
13 4 13 16
14 4 13 14
15 4 13 15
16 2 17 20
17 4 17 18
18 4 17 19
19 4 20 23
20 4 20 21
21 4 20 22
22 4 16 17
23 4 23 24
24 2 24 27
25 4 24 25
26 4 24 26
27 5 27 30
28 4 27 28
29 4 27 29
30 6 30 31

Angles

1 3 1 6 7
2 3 1 6 8
3 4 1 6 9
4 6 7 6 8
5 5 7 6 9
6 5 8 6 9
7 5 9 10 11
8 5 9 10 12
9 4 9 10 13
10 6 11 10 12
11 3 11 10 13
12 3 12 10 13
13 6 2 1 3
14 7 2 1 4
15 3 2 1 6
16 7 3 1 4
17 3 3 1 6
18 8 4 1 6
19 2 1 4 5
20 9 6 9 10
21 3 10 13 14
22 3 10 13 15
23 4 10 13 16
24 6 14 13 15
25 5 14 13 16
26 5 15 13 16
27 5 16 17 18
28 5 16 17 19
29 4 16 17 20
30 6 18 17 19
31 3 18 17 20
32 3 19 17 20
33 3 17 20 21
34 3 17 20 22
35 4 17 20 23
36 6 21 20 22
37 5 21 20 23
38 5 22 20 23
39 9 13 16 17
40 9 20 23 24
41 5 23 24 25
42 5 23 24 26
43 4 23 24 27
44 6 25 24 26
45 3 25 24 27
46 3 26 24 27
47 3 24 27 28
48 3 24 27 29
49 8 24 27 30
50 6 28 27 29
51 7 28 27 30
52 7 29 27 30
53 2 27 30 31

Dihedrals

1 1 1 6 9 10
2 2 1 6 9 10
3 3 1 6 9 10
4 4 9 10 13 16
5 5 9 10 13 16
6 6 6 1 4 5
7 7 6 1 4 5
8 8 6 1 4 5
9 12 4 1 6 9
10 13 4 1 6 9
11 14 4 1 6 9
12 1 6 9 10 13
13 2 6 9 10 13
14 3 6 9 10 13
15 1 10 13 16 17
16 2 10 13 16 17
17 3 10 13 16 17
18 4 16 17 20 23
19 5 16 17 20 23
20 1 17 20 23 24
21 2 17 20 23 24
22 3 17 20 23 24
23 1 13 16 17 20
24 2 13 16 17 20
25 3 13 16 17 20
26 1 20 23 24 27
27 2 20 23 24 27
28 3 20 23 24 27
29 12 23 24 27 30
30 13 23 24 27 30
31 14 23 24 27 30
32 6 24 27 30 31
33 7 24 27 30 31
34 8 24 27 30 31
