LAMMPS data file via write_data, version 28 Mar 2023, timestep = 100

31 atoms
7 atom types
30 bonds
6 bond types
53 angles
9 angle types
34 dihedrals
14 dihedral types

43.372269708529295 51.16017314373332 xlo xhi
-60.183040845419 -53.80808059500457 ylo yhi
-27.0699196518851 -18.050194641173494 zlo zhi

Masses

1 15.9994
2 1.008
3 12.011
4 15.9994
5 1.008
6 15.9994
7 1.008

Pair Coeffs # lj/cut

1 0 0
2 0 0
3 0 0
4 0 0
5 0.05 1.6036
6 0 0
7 0.05 1.6036

Bond Coeffs # harmonic

1 0 0.9572
2 222.35 1.53
3 308.79 1.1111
4 359.76 1.1415
5 427.715 1.142
6 544.635 0.96

Angle Coeffs # charmm

1 0 104.52 0 0
2 50 109 0 0
3 26.5 110.1 22.53 2.179
4 45 111.5 0 0
5 13.0258 109.4 0 0
6 35.5 109 5.4 1.802
7 55 108.89 0 0
8 75.7 110.1 0 0
9 95 109.7 0 0

Dihedral Coeffs # charmm

1 0.57 1 0 0
2 0.29 2 0 0
3 0.43 3 0 0
4 0.59 1 180 0
5 1.16 2 0 0
6 0.12 1 0 0
7 0.42 2 0 0
8 0.29 3 0 0
9 2.87 1 180 0
10 0.03 2 0 0
11 0.23 3 0 0
12 1.36 1 180 0
13 0.16 2 0 0
14 1.01 3 0 0

Atoms # full

3 1 5 0 44.81834005252735 -55.559037311690005 -25.96732302602052 0 0 0
1 1 3 0 44.33228762332755 -54.67251925912776 -25.45372069466312 0 0 0
4 1 6 0 43.373072660110964 -54.358434284176504 -26.16917834523412 0 0 0
5 1 7 0 43.66260936270038 -54.16774290990901 -27.069000296629675 0 0 0
2 1 5 0 45.06360067022519 -53.808716031151626 -25.524287362868016 0 0 0
14 1 5 0 45.68605429062538 -58.18563331835271 -24.300661315949668 0 0 0
16 1 4 0 47.41177928495018 -58.41363929084261 -23.72769078002801 0 0 0
18 1 5 0 49.12448827596552 -59.098046010613004 -23.862809869719083 0 0 0
17 1 3 0 48.59691076664677 -58.0886399623462 -23.832186760402678 0 0 0
15 1 5 0 46.86595737777211 -56.85113856493594 -24.69234260257293 0 0 0
13 1 3 0 46.53257646020763 -57.55623821247511 -23.86745115136553 0 0 0
19 1 5 0 48.695136698586616 -57.64916528121556 -24.8770741481167 0 0 0
22 1 5 0 50.20759074387584 -56.52065808625787 -23.56351317457198 0 0 0
20 1 3 0 49.57244260307712 -57.10963601281039 -22.815948165765604 0 0 0
8 1 5 0 43.62359759836948 -55.94776205792356 -23.557305315365202 0 0 0
6 1 3 0 44.406084256197175 -55.136891695100076 -23.672653743855694 0 0 0
7 1 5 0 43.99027473609114 -54.20787934652515 -23.164444098776112 0 0 0
12 1 5 0 44.95583884009476 -57.22601279438651 -22.201244416921746 0 0 0
10 1 3 0 45.778177915076164 -56.58875749672875 -22.66143257313076 0 0 0
11 1 5 0 46.56464838005805 -56.46832734691948 -21.843210209127715 0 0 0
21 1 5 0 48.87783953264571 -56.343466427492295 -22.346891795001984 0 0 0
23 1 4 0 50.466930032546564 -57.47890016156261 -21.99639806717717 0 0 0
24 1 3 0 50.24758202505473 -57.704158029444436 -20.71623573087069 0 0 0
26 1 5 0 49.3437695544178 -57.081985896964376 -20.440429685909358 0 0 0
25 1 5 0 51.15937019215165 -57.16201274762035 -20.30621443632679 0 0 0
9 1 4 0 45.3295395682336 -55.42352634509296 -22.803430225007858 0 0 0
28 1 5 0 49.30108575417786 -59.77578694863853 -20.017139966207324 0 0 0
31 1 7 0 49.99232875078633 -60.182405409271944 -18.05111399642892 0 0 0
29 1 5 0 51.10695733590067 -59.733043600868534 -19.800106191895576 0 0 0
27 1 3 0 50.149529978840036 -59.173222118179524 -19.56808739187602 0 0 0
30 1 6 0 50.00130723317975 -59.26064881087042 -18.335042688434683 0 0 0

Velocities

3 0 0 -0
1 0 0 0
4 -0 -0 -0
5 -0 0 0
2 -0 0 0
14 -0 0 -0
16 0 0 0
18 0 -0 -0
17 -0 -0 -0
15 0 -0 -0
13 0 -0 -0
19 -0 -0 0
22 -0 -0 -0
20 0 -0 -0
8 -0 0 0
6 0 0 -0
7 0 0 -0
12 -0 -0 0
10 -0 -0 0
11 -0 0 0
21 0 -0 -0
23 -0 0 0
24 -0 -0 -0
26 -0 -0 -0
25 0 -0 0
9 -0 -0 -0
28 -0 -0 -0
31 0 0 0
29 0 0 -0
27 -0 -0 -0
30 -0 0 0

Bonds

1 2 1 6
2 5 1 4
3 4 1 2
4 4 1 3
5 6 4 5
6 4 16 17
7 2 17 20
8 4 17 18
9 4 17 19
10 4 13 16
11 4 13 14
12 4 13 15
13 4 20 23
14 4 20 21
15 4 20 22
16 4 6 9
17 4 6 7
18 4 6 8
19 2 10 13
20 4 10 11
21 4 10 12
22 4 23 24
23 2 24 27
24 4 24 25
25 4 24 26
26 4 9 10
27 5 27 30
28 4 27 28
29 4 27 29
30 6 30 31

Angles

1 6 2 1 3
2 7 2 1 4
3 3 2 1 6
4 7 3 1 4
5 3 3 1 6
6 8 4 1 6
7 2 1 4 5
8 9 13 16 17
9 5 16 17 18
10 5 16 17 19
11 4 16 17 20
12 6 18 17 19
13 3 18 17 20
14 3 19 17 20
15 3 10 13 14
16 3 10 13 15
17 4 10 13 16
18 6 14 13 15
19 5 14 13 16
20 5 15 13 16
21 3 17 20 21
22 3 17 20 22
23 4 17 20 23
24 6 21 20 22
25 5 21 20 23
26 5 22 20 23
27 3 1 6 7
28 3 1 6 8
29 4 1 6 9
30 6 7 6 8
31 5 7 6 9
32 5 8 6 9
33 5 9 10 11
34 5 9 10 12
35 4 9 10 13
36 6 11 10 12
37 3 11 10 13
38 3 12 10 13
39 9 20 23 24
40 5 23 24 25
41 5 23 24 26
42 4 23 24 27
43 6 25 24 26
44 3 25 24 27
45 3 26 24 27
46 9 6 9 10
47 3 24 27 28
48 3 24 27 29
49 8 24 27 30
50 6 28 27 29
51 7 28 27 30
52 7 29 27 30
53 2 27 30 31

Dihedrals

1 6 6 1 4 5
2 7 6 1 4 5
3 8 6 1 4 5
4 12 4 1 6 9
5 13 4 1 6 9
6 14 4 1 6 9
7 1 13 16 17 20
8 2 13 16 17 20
9 3 13 16 17 20
10 4 16 17 20 23
11 5 16 17 20 23
12 1 10 13 16 17
13 2 10 13 16 17
14 3 10 13 16 17
15 1 17 20 23 24
16 2 17 20 23 24
17 3 17 20 23 24
18 1 1 6 9 10
19 2 1 6 9 10
20 3 1 6 9 10
21 4 9 10 13 16
22 5 9 10 13 16
23 1 20 23 24 27
24 2 20 23 24 27
25 3 20 23 24 27
26 12 23 24 27 30
27 13 23 24 27 30
28 14 23 24 27 30
29 1 6 9 10 13
30 2 6 9 10 13
31 3 6 9 10 13
32 6 24 27 30 31
33 7 24 27 30 31
34 8 24 27 30 31
