LAMMPS data file via write_data, version 29 Sep 2021, timestep = 10120

31 atoms
7 atom types
30 bonds
6 bond types
53 angles
9 angle types
34 dihedrals
14 dihedral types

42.915300543502234 52.970287842246215 xlo xhi
-60.71189771063869 -52.4497613181094 ylo yhi
-26.787246490928165 -18.52272791239221 zlo zhi

Masses

1 15.9994
2 1.008
3 12.011
4 15.9994
5 1.008
6 15.9994
7 1.008

Pair Coeffs # lj/cut

1 0 0
2 0 0
3 0 0
4 0 0
5 0.05 1.6036
6 0 0
7 0.05 1.6036

Bond Coeffs # harmonic

1 0 0.9572
2 222.35 1.53
3 308.79 1.1111
4 359.76 1.1415
5 427.715 1.142
6 544.635 0.96

Angle Coeffs # charmm

1 0 104.52 0 0
2 50 109 0 0
3 26.5 110.1 22.53 2.179
4 45 111.5 0 0
5 13.0258 109.4 0 0
6 35.5 109 5.4 1.802
7 55 108.89 0 0
8 75.7 110.1 0 0
9 95 109.7 0 0

Dihedral Coeffs # charmm

1 0.57 1 0 0
2 0.29 2 0 0
3 0.43 3 0 0
4 0.59 1 180 0
5 1.16 2 0 0
6 0.12 1 0 0
7 0.42 2 0 0
8 0.29 3 0 0
9 2.87 1 180 0
10 0.03 2 0 0
11 0.23 3 0 0
12 1.36 1 180 0
13 0.16 2 0 0
14 1.01 3 0 0

Atoms # full

9 1 4 0 44.787425211308495 -56.78055185915109 -25.695777413712147 0 0 0
16 1 4 0 47.38300859877693 -58.82571897197756 -24.066097862820634 0 0 0
10 1 3 0 45.24510522120839 -57.740882043312155 -25.011246741884968 0 0 0
13 1 3 0 46.87273547282138 -58.16319594553769 -24.960136805703254 0 0 0
12 1 5 0 44.739707710653065 -58.66717849288588 -25.44750571023645 0 0 0
11 1 5 0 44.91030740454431 -57.66717216035944 -23.92761108353439 0 0 0
14 1 5 0 47.05658787329073 -58.77071579083685 -25.905770741356733 0 0 0
15 1 5 0 47.458842171963475 -57.194408682735656 -25.05485955583811 0 0 0
17 1 3 0 48.5667495254183 -58.68379630685126 -23.84589197013893 0 0 0
18 1 5 0 49.058177607614596 -59.67485367089848 -24.12288549702936 0 0 0
19 1 5 0 48.981805697244106 -57.893577594574786 -24.551940279716806 0 0 0
1 1 3 0 43.70906541811192 -54.124728287744354 -25.669534397977554 0 0 0
4 1 6 0 42.918300543502234 -53.30785917698853 -25.202060402810332 0 0 0
6 1 3 0 43.96613711426747 -55.875762105785306 -25.242872539296645 0 0 0
5 1 7 0 43.01495857651789 -52.4527613181094 -25.636501118438233 0 0 0
2 1 5 0 44.73950636040485 -53.6683020001823 -25.54051987582053 0 0 0
3 1 5 0 43.500603055918425 -54.154184201922526 -26.784246490928165 0 0 0
7 1 5 0 44.07738511661653 -55.870086666746275 -24.11553344484103 0 0 0
8 1 5 0 42.95649996685713 -56.33818540390512 -25.484791709029967 0 0 0
23 1 4 0 49.831066929126514 -59.127320540019866 -21.734402435343185 0 0 0
27 1 3 0 51.74474314464437 -59.82989968451711 -19.778802517393398 0 0 0
30 1 6 0 52.4471960342117 -59.518091860650024 -18.824427240562375 0 0 0
20 1 3 0 49.11262172101225 -58.314935597446166 -22.344689691144648 0 0 0
24 1 3 0 50.57426115136815 -58.82222434485073 -20.72175878947832 0 0 0
21 1 5 0 48.173785202475734 -58.11766508856233 -21.72817787497626 0 0 0
22 1 5 0 49.65731090515923 -57.320403476500225 -22.455423093283752 0 0 0
26 1 5 0 49.84770360101153 -58.44878861200262 -19.934000392464238 0 0 0
25 1 5 0 51.19519004591752 -57.93752480887494 -21.06622976641847 0 0 0
28 1 5 0 51.118010413433424 -60.70889771063869 -19.42949142574996 0 0 0
29 1 5 0 52.45352037216352 -60.22737655230087 -20.57064962976435 0 0 0
31 1 7 0 52.967287842246215 -60.27261944029724 -18.52572791239221 0 0 0

Velocities

9 -0 -0 -0
16 0 0 0
10 -0 -0 0
13 0 -0 -0
12 -0 -0 0
11 -0 0 0
14 -0 0 -0
15 0 -0 -0
17 -0 -0 -0
18 0 -0 -0
19 -0 -0 0
1 0 0 0
4 -0 -0 -0
6 0 0 -0
5 -0 0 0
2 -0 0 0
3 0 0 -0
7 0 0 -0
8 -0 0 0
23 -0 0 0
27 -0 -0 -0
30 -0 0 0
20 0 -0 -0
24 -0 -0 -0
21 0 -0 -0
22 -0 -0 -0
26 -0 -0 -0
25 0 -0 0
28 -0 -0 -0
29 0 0 -0
31 0 0 0

Bonds

1 4 9 10
2 4 16 17
3 2 10 13
4 4 10 11
5 4 10 12
6 4 13 16
7 4 13 14
8 4 13 15
9 2 17 20
10 4 17 18
11 4 17 19
12 2 1 6
13 5 1 4
14 4 1 2
15 4 1 3
16 6 4 5
17 4 6 9
18 4 6 7
19 4 6 8
20 4 23 24
21 5 27 30
22 4 27 28
23 4 27 29
24 6 30 31
25 4 20 23
26 4 20 21
27 4 20 22
28 2 24 27
29 4 24 25
30 4 24 26

Angles

1 9 6 9 10
2 9 13 16 17
3 5 9 10 11
4 5 9 10 12
5 4 9 10 13
6 6 11 10 12
7 3 11 10 13
8 3 12 10 13
9 3 10 13 14
10 3 10 13 15
11 4 10 13 16
12 6 14 13 15
13 5 14 13 16
14 5 15 13 16
15 5 16 17 18
16 5 16 17 19
17 4 16 17 20
18 6 18 17 19
19 3 18 17 20
20 3 19 17 20
21 6 2 1 3
22 7 2 1 4
23 3 2 1 6
24 7 3 1 4
25 3 3 1 6
26 8 4 1 6
27 2 1 4 5
28 3 1 6 7
29 3 1 6 8
30 4 1 6 9
31 6 7 6 8
32 5 7 6 9
33 5 8 6 9
34 9 20 23 24
35 3 24 27 28
36 3 24 27 29
37 8 24 27 30
38 6 28 27 29
39 7 28 27 30
40 7 29 27 30
41 2 27 30 31
42 3 17 20 21
43 3 17 20 22
44 4 17 20 23
45 6 21 20 22
46 5 21 20 23
47 5 22 20 23
48 5 23 24 25
49 5 23 24 26
50 4 23 24 27
51 6 25 24 26
52 3 25 24 27
53 3 26 24 27

Dihedrals

1 1 6 9 10 13
2 2 6 9 10 13
3 3 6 9 10 13
4 1 13 16 17 20
5 2 13 16 17 20
6 3 13 16 17 20
7 4 9 10 13 16
8 5 9 10 13 16
9 1 10 13 16 17
10 2 10 13 16 17
11 3 10 13 16 17
12 4 16 17 20 23
13 5 16 17 20 23
14 6 6 1 4 5
15 7 6 1 4 5
16 8 6 1 4 5
17 12 4 1 6 9
18 13 4 1 6 9
19 14 4 1 6 9
20 1 1 6 9 10
21 2 1 6 9 10
22 3 1 6 9 10
23 1 20 23 24 27
24 2 20 23 24 27
25 3 20 23 24 27
26 6 24 27 30 31
27 7 24 27 30 31
28 8 24 27 30 31
29 1 17 20 23 24
30 2 17 20 23 24
31 3 17 20 23 24
32 12 23 24 27 30
33 13 23 24 27 30
34 14 23 24 27 30
