LAMMPS data file via write_data, version 28 Mar 2023, timestep = 1

31 atoms
7 atom types
30 bonds
6 bond types
53 angles
9 angle types
34 dihedrals
14 dihedral types

54.37573513264039 63.34768435974979 xlo xhi
7.238180465992816 18.273216283195534 ylo yhi
40.763476584861806 45.92967227464578 zlo zhi

Masses

1 15.9994
2 1.008
3 12.011
4 15.9994
5 1.008
6 15.9994
7 1.008

Pair Coeffs # lj/cut

1 0 0
2 0 0
3 0 0
4 0 0
5 0.05 1.6036
6 0 0
7 0.05 1.6036

Bond Coeffs # harmonic

1 0 0.9572
2 222.35 1.53
3 308.79 1.1111
4 359.76 1.1415
5 427.715 1.142
6 544.635 0.96

Angle Coeffs # charmm

1 0 104.52 0 0
2 50 109 0 0
3 26.5 110.1 22.53 2.179
4 45 111.5 0 0
5 13.0258 109.4 0 0
6 35.5 109 5.4 1.802
7 55 108.89 0 0
8 75.7 110.1 0 0
9 95 109.7 0 0

Dihedral Coeffs # charmm

1 0.57 1 0 0
2 0.29 2 0 0
3 0.43 3 0 0
4 0.59 1 180 0
5 1.16 2 0 0
6 0.12 1 0 0
7 0.42 2 0 0
8 0.29 3 0 0
9 2.87 1 180 0
10 0.03 2 0 0
11 0.23 3 0 0
12 1.36 1 180 0
13 0.16 2 0 0
14 1.01 3 0 0

Atoms # full

5 1 7 0 54.37663232830562 8.14692555081929 40.76399320462333 0 0 0
2 1 5 0 56.25135057029031 8.879438127637684 41.41867273481625 0 0 0
3 1 5 0 55.786891652421794 7.239283969141926 42.05758459019328 0 0 0
1 1 3 0 55.55482340962295 8.346289664784718 42.13726024890618 0 0 0
4 1 6 0 54.41833301970666 8.484419608798444 41.666316869076645 0 0 0
18 1 5 0 60.171078660161434 11.953180547272593 43.273191770359986 0 0 0
22 1 5 0 59.56578514083866 14.124138487454166 42.95529381118997 0 0 0
26 1 5 0 61.05004290298555 15.433111415304417 42.84332643671668 0 0 0
8 1 5 0 55.61224047948901 8.158925063493323 44.48859589360373 0 0 0
6 1 3 0 56.243241087964485 8.794319996668872 43.78951502006308 0 0 0
11 1 5 0 58.43223194789303 9.038873705348811 45.929155654884255 0 0 0
9 1 4 0 57.39594312875568 8.689140368737977 44.38773763083255 0 0 0
7 1 5 0 55.9315937347942 9.873081188003393 43.930227499143164 0 0 0
12 1 5 0 57.06024247756451 10.198573734813612 45.62805091482859 0 0 0
10 1 3 0 57.87180905785453 9.5983918028414 45.10366560008946 0 0 0
15 1 5 0 58.93804485049698 10.596131494750555 43.38276297248728 0 0 0
14 1 5 0 59.9952084797722 10.312180482127356 44.859162134298536 0 0 0
13 1 3 0 58.9736203240484 10.679493393705291 44.516686877679156 0 0 0
19 1 5 0 60.80821139391425 12.269690003617526 44.97424076799937 0 0 0
17 1 3 0 59.913539063317195 12.418040512619132 44.28174473805677 0 0 0
16 1 4 0 58.98679779822505 11.855707746236117 44.74777102392819 0 0 0
21 1 5 0 58.77333925882029 14.246261248837124 44.613642169287715 0 0 0
20 1 3 0 59.73408691230026 13.951907864643921 44.069882141270426 0 0 0
23 1 4 0 60.661783084542584 14.597054746141742 44.49536931975094 0 0 0
24 1 3 0 60.96711346004194 15.692453324686358 43.944792443141445 0 0 0
25 1 5 0 60.03686186735203 16.32693209334298 44.086167285307575 0 0 0
29 1 5 0 62.23908773461971 17.05535452876529 45.35185799173571 0 0 0
28 1 5 0 63.24576352587251 16.169509234292356 44.11508762988746 0 0 0
31 1 7 0 63.34678716408457 18.272112780046424 44.04815444643582 0 0 0
27 1 3 0 62.31890913021645 16.81168430056697 44.246173394687965 0 0 0
30 1 6 0 62.55417454056456 17.864321768570406 43.682404733994844 0 0 0

Velocities

5 -0 -0 0
2 -0 0 0
3 0 0 -0
1 -0 -0 0
4 0 0 -0
18 -0 -0 -0
22 -0 0 -0
26 0 -0 0
8 0 -0 -0
6 0 -0 0
11 -0 -0 -0
9 0 0 -0
7 -0 -0 0
12 -0 0 0
10 -0 0 -0
15 -0 0 -0
14 -0 -0 -0
13 -0 0 -0
19 0 -0 -0
17 0 -0 -0
16 0 -0 0
21 0 0 0
20 -0 -0 -0
23 -0 0 0
24 0 -0 0
25 0 0 -0
29 -0 0 0
28 -0 0 0
31 0 -0 -0
27 -0 0 0
30 0 -0 -0

Bonds

1 2 1 6
2 5 1 4
3 4 1 2
4 4 1 3
5 6 4 5
6 4 6 9
7 4 6 7
8 4 6 8
9 4 9 10
10 2 10 13
11 4 10 11
12 4 10 12
13 4 13 16
14 4 13 14
15 4 13 15
16 2 17 20
17 4 17 18
18 4 17 19
19 4 16 17
20 4 20 23
21 4 20 21
22 4 20 22
23 4 23 24
24 2 24 27
25 4 24 25
26 4 24 26
27 5 27 30
28 4 27 28
29 4 27 29
30 6 30 31

Angles

1 6 2 1 3
2 7 2 1 4
3 3 2 1 6
4 7 3 1 4
5 3 3 1 6
6 8 4 1 6
7 2 1 4 5
8 3 1 6 7
9 3 1 6 8
10 4 1 6 9
11 6 7 6 8
12 5 7 6 9
13 5 8 6 9
14 9 6 9 10
15 5 9 10 11
16 5 9 10 12
17 4 9 10 13
18 6 11 10 12
19 3 11 10 13
20 3 12 10 13
21 3 10 13 14
22 3 10 13 15
23 4 10 13 16
24 6 14 13 15
25 5 14 13 16
26 5 15 13 16
27 5 16 17 18
28 5 16 17 19
29 4 16 17 20
30 6 18 17 19
31 3 18 17 20
32 3 19 17 20
33 9 13 16 17
34 3 17 20 21
35 3 17 20 22
36 4 17 20 23
37 6 21 20 22
38 5 21 20 23
39 5 22 20 23
40 9 20 23 24
41 5 23 24 25
42 5 23 24 26
43 4 23 24 27
44 6 25 24 26
45 3 25 24 27
46 3 26 24 27
47 3 24 27 28
48 3 24 27 29
49 8 24 27 30
50 6 28 27 29
51 7 28 27 30
52 7 29 27 30
53 2 27 30 31

Dihedrals

1 6 6 1 4 5
2 7 6 1 4 5
3 8 6 1 4 5
4 12 4 1 6 9
5 13 4 1 6 9
6 14 4 1 6 9
7 1 1 6 9 10
8 2 1 6 9 10
9 3 1 6 9 10
10 1 6 9 10 13
11 2 6 9 10 13
12 3 6 9 10 13
13 4 9 10 13 16
14 5 9 10 13 16
15 1 10 13 16 17
16 2 10 13 16 17
17 3 10 13 16 17
18 4 16 17 20 23
19 5 16 17 20 23
20 1 13 16 17 20
21 2 13 16 17 20
22 3 13 16 17 20
23 1 17 20 23 24
24 2 17 20 23 24
25 3 17 20 23 24
26 1 20 23 24 27
27 2 20 23 24 27
28 3 20 23 24 27
29 12 23 24 27 30
30 13 23 24 27 30
31 14 23 24 27 30
32 6 24 27 30 31
33 7 24 27 30 31
34 8 24 27 30 31
