LAMMPS data file via write_data, version 29 Sep 2021, timestep = 10120

31 atoms
7 atom types
30 bonds
6 bond types
53 angles
9 angle types
34 dihedrals
14 dihedral types

55.732672630212484 66.39138946250065 xlo xhi
55.902766905953655 60.37217849964598 ylo yhi
-55.503827120872344 -48.6240936759227 zlo zhi

Masses

1 15.9994
2 1.008
3 12.011
4 15.9994
5 1.008
6 15.9994
7 1.008

Pair Coeffs # lj/cut

1 0 0
2 0 0
3 0 0
4 0 0
5 0.05 1.6036
6 0 0
7 0.05 1.6036

Bond Coeffs # harmonic

1 0 0.9572
2 222.35 1.53
3 308.79 1.1111
4 359.76 1.1415
5 427.715 1.142
6 544.635 0.96

Angle Coeffs # charmm

1 0 104.52 0 0
2 50 109 0 0
3 26.5 110.1 22.53 2.179
4 45 111.5 0 0
5 13.0258 109.4 0 0
6 35.5 109 5.4 1.802
7 55 108.89 0 0
8 75.7 110.1 0 0
9 95 109.7 0 0

Dihedral Coeffs # charmm

1 0.57 1 0 0
2 0.29 2 0 0
3 0.43 3 0 0
4 0.59 1 180 0
5 1.16 2 0 0
6 0.12 1 0 0
7 0.42 2 0 0
8 0.29 3 0 0
9 2.87 1 180 0
10 0.03 2 0 0
11 0.23 3 0 0
12 1.36 1 180 0
13 0.16 2 0 0
14 1.01 3 0 0

Atoms # full

23 1 4 0 59.21988603324324 57.99782086606905 -53.32682237905801 0 0 0
27 1 3 0 57.11379927272604 59.41680868705219 -54.5133656506501 0 0 0
30 1 6 0 55.94510641195657 59.7710601692387 -54.47818754047598 0 0 0
24 1 3 0 58.01255132358472 58.401242823486186 -53.33551110596275 0 0 0
26 1 5 0 57.419185342379315 57.434287075139736 -53.29855024921869 0 0 0
25 1 5 0 57.87788231495064 58.93131219991512 -52.34229869980062 0 0 0
28 1 5 0 57.247923893240454 58.87393892427371 -55.500827120872344 0 0 0
29 1 5 0 57.72795290292704 60.36917849964598 -54.57521008546673 0 0 0
31 1 7 0 55.735672630212484 60.32209743813683 -55.24055914510504 0 0 0
20 1 3 0 59.70609871845649 57.47218062209903 -52.34123873139573 0 0 0
22 1 5 0 60.41857521255269 56.65249951415998 -52.69898818557809 0 0 0
4 1 6 0 65.24935157105644 56.55004092256986 -53.42063796731855 0 0 0
1 1 3 0 64.77525494356114 56.87397310067855 -52.32587050978384 0 0 0
5 1 7 0 64.60408259228699 56.059369093408066 -53.94280175649938 0 0 0
3 1 5 0 63.834658364834375 57.46214140488449 -52.56172716635582 0 0 0
21 1 5 0 58.91204407933123 56.95878393378103 -51.70413254091707 0 0 0
17 1 3 0 60.551428351147834 58.404690294797305 -51.386527250745445 0 0 0
16 1 4 0 61.76567481689957 58.44316044220661 -51.45095490436732 0 0 0
13 1 3 0 62.40549906510497 58.36336636480318 -50.36995236741297 0 0 0
14 1 5 0 62.330620452291015 57.255056757645946 -50.135067803710506 0 0 0
15 1 5 0 61.69746010530527 58.90760122229023 -49.66729193073129 0 0 0
18 1 5 0 60.18130820298558 59.46564038858612 -51.58998493565541 0 0 0
19 1 5 0 60.2430637213843 58.1373860203967 -50.322198101238904 0 0 0
9 1 4 0 65.079891149242 58.190363333841084 -49.78013360020225 0 0 0
6 1 3 0 65.50676485714817 57.810884452905185 -50.92268855094638 0 0 0
10 1 3 0 64.00693079802997 58.81288006058648 -49.75683692236462 0 0 0
2 1 5 0 64.44069020677486 55.905766905953655 -51.83927862317154 0 0 0
7 1 5 0 65.94142645768645 58.75097501319128 -51.382834135112745 0 0 0
8 1 5 0 66.38838946250065 57.17133350876482 -50.59756947228225 0 0 0
12 1 5 0 63.8583856311542 58.88087411697302 -48.6270936759227 0 0 0
11 1 5 0 64.20407517123243 59.877125863764725 -50.097800767850075 0 0 0

Velocities

23 -0 -0 0
27 -0 -0 0
30 0 0 0
24 0 0 0
26 -0 0 0
25 0 0 0
28 -0 -0 0
29 0 -0 -0
31 -0 -0 -0
20 0 -0 -0
22 0 0 -0
4 -0 -0 -0
1 0 -0 -0
5 -0 0 0
3 0 0 0
21 -0 0 -0
17 0 -0 -0
16 0 -0 -0
13 -0 0 0
14 0 0 -0
15 0 0 0
18 -0 -0 0
19 -0 0 -0
9 -0 0 0
6 -0 -0 0
10 0 0 0
2 0 0 0
7 0 -0 -0
8 -0 -0 0
12 -0 0 0
11 0 -0 -0

Bonds

1 4 23 24
2 5 27 30
3 4 27 28
4 4 27 29
5 6 30 31
6 2 24 27
7 4 24 25
8 4 24 26
9 4 20 23
10 4 20 21
11 4 20 22
12 6 4 5
13 2 1 6
14 5 1 4
15 4 1 2
16 4 1 3
17 2 17 20
18 4 17 18
19 4 17 19
20 4 16 17
21 4 13 16
22 4 13 14
23 4 13 15
24 4 9 10
25 4 6 9
26 4 6 7
27 4 6 8
28 2 10 13
29 4 10 11
30 4 10 12

Angles

1 9 20 23 24
2 3 24 27 28
3 3 24 27 29
4 8 24 27 30
5 6 28 27 29
6 7 28 27 30
7 7 29 27 30
8 2 27 30 31
9 5 23 24 25
10 5 23 24 26
11 4 23 24 27
12 6 25 24 26
13 3 25 24 27
14 3 26 24 27
15 3 17 20 21
16 3 17 20 22
17 4 17 20 23
18 6 21 20 22
19 5 21 20 23
20 5 22 20 23
21 2 1 4 5
22 6 2 1 3
23 7 2 1 4
24 3 2 1 6
25 7 3 1 4
26 3 3 1 6
27 8 4 1 6
28 5 16 17 18
29 5 16 17 19
30 4 16 17 20
31 6 18 17 19
32 3 18 17 20
33 3 19 17 20
34 9 13 16 17
35 3 10 13 14
36 3 10 13 15
37 4 10 13 16
38 6 14 13 15
39 5 14 13 16
40 5 15 13 16
41 9 6 9 10
42 3 1 6 7
43 3 1 6 8
44 4 1 6 9
45 6 7 6 8
46 5 7 6 9
47 5 8 6 9
48 5 9 10 11
49 5 9 10 12
50 4 9 10 13
51 6 11 10 12
52 3 11 10 13
53 3 12 10 13

Dihedrals

1 1 20 23 24 27
2 2 20 23 24 27
3 3 20 23 24 27
4 6 24 27 30 31
5 7 24 27 30 31
6 8 24 27 30 31
7 12 23 24 27 30
8 13 23 24 27 30
9 14 23 24 27 30
10 1 17 20 23 24
11 2 17 20 23 24
12 3 17 20 23 24
13 6 6 1 4 5
14 7 6 1 4 5
15 8 6 1 4 5
16 12 4 1 6 9
17 13 4 1 6 9
18 14 4 1 6 9
19 4 16 17 20 23
20 5 16 17 20 23
21 1 13 16 17 20
22 2 13 16 17 20
23 3 13 16 17 20
24 1 10 13 16 17
25 2 10 13 16 17
26 3 10 13 16 17
27 1 6 9 10 13
28 2 6 9 10 13
29 3 6 9 10 13
30 1 1 6 9 10
31 2 1 6 9 10
32 3 1 6 9 10
33 4 9 10 13 16
34 5 9 10 13 16
