ITEM: TIMESTEP
10120
ITEM: NUMBER OF ATOMS
31
ITEM: BOX BOUNDS ss ss ss
3.1109845719419596e+01 3.7226718565726124e+01
8.8895515511128153e+01 9.9136148563333151e+01
-7.2459121372736046e+00 1.5184977589205013e+00
ITEM: ATOMS id type xs ys zs
11 5 0.393039 0.331873 0.451387
17 3 0.208821 0.64672 0.467545
16 4 0.122097 0.532995 0.458714
21 5 0.138543 0.853476 0.369859
22 5 0.228763 0.7413 0.22121
26 5 0.553275 0.999707 0.203467
25 5 0.406372 0.875013 0.0968279
29 5 0.756096 0.721483 0.12386
28 5 0.896038 0.853663 0.224405
31 7 0.99951 0.819722 0.000342293
20 3 0.271806 0.780652 0.338113
24 3 0.525768 0.889755 0.194529
23 4 0.431203 0.863858 0.321987
27 3 0.775378 0.831705 0.129272
30 6 0.861959 0.864325 0.0121372
5 7 0.70459 0.000292951 0.999658
2 5 0.458159 0.139658 0.962772
3 5 0.480233 0.0126097 0.817721
7 5 0.62791 0.183072 0.619964
8 5 0.61632 0.312331 0.764668
6 3 0.528721 0.222818 0.719143
4 6 0.733675 0.0653276 0.92284
1 3 0.563572 0.102905 0.865234
9 4 0.356182 0.266856 0.655055
15 5 0.000490447 0.382505 0.553394
19 5 0.367293 0.630203 0.531493
12 5 0.499458 0.432877 0.607844
14 5 0.122598 0.50398 0.679728
10 3 0.360391 0.365002 0.573638
13 3 0.142971 0.454185 0.56438
18 5 0.0887081 0.694011 0.549567
