31
Atoms. Timestep: 10120
3 34.5571 89.9493 0.337355
5 33.9123 90.3257 1.19221
5 34.0474 89.0246 -0.0790663
6 35.5976 89.5645 0.842235
7 35.4197 88.8985 1.5155
3 34.344 91.1773 -0.943049
5 34.9507 90.7703 -1.81229
5 34.8798 92.094 -0.544051
4 33.2886 91.6283 -1.50474
3 33.3143 92.6334 -2.21831
5 33.514 92.2941 -3.28977
5 34.165 93.3285 -1.91852
3 31.9844 93.5467 -2.29946
5 31.8598 94.0566 -1.28849
5 31.1128 92.8126 -2.39574
4 31.8567 94.3537 -3.22555
3 32.3872 95.5183 -3.14816
5 31.6525 96.0026 -2.42928
5 33.3565 95.3492 -2.58769
3 32.7724 96.8899 -4.28255
5 31.9573 97.6356 -4.00432
5 32.5092 96.4869 -5.30714
4 33.7475 97.742 -4.42389
3 34.3259 98.0072 -5.54098
5 33.5956 97.8562 -6.39727
5 34.4942 99.1331 -5.46265
3 35.8527 97.4127 -6.11292
5 36.5908 97.6376 -5.27914
5 35.7348 96.284 -6.16035
6 36.3823 97.7468 -7.13954
7 37.2237 97.29 -7.24291
