31
Atoms. Timestep: 10120
3 -8.01499 67.5936 -21.8532
5 -7.8286 68.4879 -21.1812
5 -9.11786 67.6059 -22.1172
6 -7.85347 66.5983 -21.1402
7 -8.44116 66.6248 -20.3763
3 -7.20597 68.0812 -23.4281
5 -6.11501 68.1673 -23.1227
5 -7.306 67.1649 -24.0853
4 -7.29738 69.1031 -24.2261
3 -7.23729 69.0012 -25.4687
5 -6.46242 68.223 -25.7694
5 -6.82002 70.006 -25.8197
3 -8.56145 68.741 -26.4208
5 -8.29331 67.8502 -27.0813
5 -9.4075 68.4116 -25.7368
4 -8.94057 69.6048 -27.1891
3 -10.1428 69.7628 -27.3794
5 -10.2852 69.4811 -28.4737
5 -10.6698 68.9659 -26.7624
3 -11.0517 71.1811 -27.1689
5 -10.667 71.6584 -26.2064
5 -12.1169 70.8517 -26.9324
4 -11.1332 72.1126 -27.9841
3 -11.3079 71.8874 -29.2503
5 -12.0552 71.0381 -29.2875
5 -11.8741 72.8406 -29.5013
3 -10.2592 71.6447 -30.7607
5 -9.57648 72.5495 -30.7393
5 -9.62314 70.7487 -30.4817
6 -10.5604 71.4817 -31.9542
7 -9.77052 71.3864 -32.4992
