ITEM: TIMESTEP
10120
ITEM: NUMBER OF ATOMS
31
ITEM: BOX BOUNDS ss ss ss
-1.2119887754032806e+01 -6.1120149226275986e+00
6.6595252848778458e+01 7.2843616292867438e+01
-3.2502244083936823e+01 -2.0373266016928262e+01
ITEM: ATOMS id type xs ys zs
18 5 0.30538 0.461864 0.332142
26 5 0.0409112 0.99952 0.247419
25 5 0.0107625 0.711048 0.26505
28 5 0.423346 0.952933 0.145351
29 5 0.41558 0.664722 0.166591
31 7 0.391049 0.76679 0.000247342
24 3 0.135159 0.846967 0.268112
27 3 0.309707 0.80812 0.143585
30 6 0.259572 0.782035 0.0451833
11 5 0.941676 0.260501 0.555102
12 5 0.882154 0.54586 0.550959
14 5 0.636928 0.200843 0.446942
15 5 0.451472 0.290692 0.557794
19 5 0.241372 0.379411 0.473234
21 5 0.241832 0.810318 0.519072
22 5 0.000499345 0.681215 0.459222
10 3 0.812701 0.385052 0.5799
13 3 0.592296 0.343415 0.501399
17 3 0.32908 0.506934 0.422365
20 3 0.177791 0.733933 0.439719
16 4 0.529192 0.481652 0.438056
23 4 0.164238 0.883006 0.372512
5 7 0.612318 0.00473537 0.999753
2 5 0.714278 0.302905 0.933392
3 5 0.499683 0.161753 0.856215
7 5 0.999501 0.251597 0.773319
8 5 0.801263 0.0911695 0.693952
6 3 0.817912 0.237815 0.748134
4 6 0.710137 0.000480126 0.93677
1 3 0.683253 0.159783 0.877985
9 4 0.802698 0.401358 0.682342
